                         Program Version 6.0.0  -   RELEASE  -
|  1> !r2SCANh freq aug-cc-pVTZ d3 TightSCF SlowConv RIJCOSX defgrid2
|  2>
|  3> %pal
|  4> nprocs 12
|  5> end
|  6>
|  7> %scf
|  8> MaxIter 1500
|  9> end
| 10>
| 11> %maxcore 5000
| 12>
| 13> !CPCM
| 14> %cpcm smd true
| 15> SMDsolvent "MeCN"
| 16> surfacetype gepol_ses
| 17> rsolv 2.19
| 18> end
| 19>
| 20> * xyz -1 2
| 21> C          -0.02293294438365      1.19935574073983     -0.00030571352692
| 22> C           1.35720990112375      1.22134737942704      0.00018818468819
| 23> C           2.05187828828145      0.01650397944713      0.00003670499763
| 24> C           1.39716382802353     -1.20904426627738     -0.00106361955157
| 25> C           0.01802751622360     -1.23150727826424     -0.00134235773678
| 26> C          -0.75759839587369     -0.02762078861235     -0.00035328569257
| 27> C          -2.18107453883692     -0.08897415475460      0.00181001853337
| 28> O          -2.81877111328462     -1.19227128293005      0.00582576031599
| 29> C          -2.96489165608833      1.20689296398659     -0.00080475442549
| 30> H          -2.75449579314181      1.82738914013264      0.87643567207945
| 31> H          -2.74885204987599      1.82744973074387     -0.87661019287295
| 32> H          -4.02804368297759      0.97344711567596     -0.00408180840663
| 33> H          -0.50910506993806     -2.17561204144837     -0.00203398179854
| 34> H           1.97375927257767     -2.12576929971747     -0.00169290437598
| 35> F           3.42198208081427      0.04009595841502      0.00111799066928
| 36> H           1.90138191834700      2.15719307427816      0.00088046201970
| 37> H          -0.55124576099063      2.14325382915822      0.00028472508381
| 38> *
| 39>
| 40>                          ****END OF INPUT****

CARTESIAN COORDINATES (ANGSTROEM)
---------------------------------
  C     -0.022933    1.199356   -0.000306
  C      1.357210    1.221347    0.000188
  C      2.051878    0.016504    0.000037
  C      1.397164   -1.209044   -0.001064
  C      0.018028   -1.231507   -0.001342
  C     -0.757598   -0.027621   -0.000353
  C     -2.181075   -0.088974    0.001810
  O     -2.818771   -1.192271    0.005826
  C     -2.964892    1.206893   -0.000805
  H     -2.754496    1.827389    0.876436
  H     -2.748852    1.827450   -0.876610
  H     -4.028044    0.973447   -0.004082
  H     -0.509105   -2.175612   -0.002034
  H      1.973759   -2.125769   -0.001693
  F      3.421982    0.040096    0.001118
  H      1.901382    2.157193    0.000880
  H     -0.551246    2.143254    0.000285

 Total Charge           Charge          ....   -1
 Multiplicity           Mult            ....    2
 Number of Electrons    NEL             ....   73
 Basis Dimension        Dim             ....  621

ORBITAL ENERGIES
----------------
                 SPIN UP ORBITALS
  NO   OCC          E(Eh)            E(eV)
   0   1.0000     -24.667106      -671.2261
   1   1.0000     -19.031446      -517.8720
   2   1.0000     -10.208553      -277.7888
   3   1.0000     -10.166562      -276.6462
   4   1.0000     -10.141611      -275.9673
   5   1.0000     -10.141288      -275.9585
   6   1.0000     -10.139394      -275.9070
   7   1.0000     -10.134750      -275.7806
   8   1.0000     -10.125824      -275.5377
   9   1.0000     -10.120127      -275.3827
  10   1.0000      -1.209661       -32.9165
  11   1.0000      -0.956063       -26.0158
  12   1.0000      -0.837616       -22.7927
  13   1.0000      -0.742134       -20.1945
  14   1.0000      -0.732916       -19.9437
  15   1.0000      -0.690943       -18.8015
  16   1.0000      -0.606702       -16.5092
  17   1.0000      -0.589507       -16.0413
  18   1.0000      -0.520539       -14.1646
  19   1.0000      -0.514208       -13.9923
  20   1.0000      -0.456666       -12.4265
  21   1.0000      -0.444416       -12.0932
  22   1.0000      -0.431343       -11.7374
  23   1.0000      -0.414912       -11.2903
  24   1.0000      -0.398325       -10.8390
  25   1.0000      -0.397685       -10.8216
  26   1.0000      -0.381210       -10.3733
  27   1.0000      -0.367758       -10.0072
  28   1.0000      -0.345715        -9.4074
  29   1.0000      -0.343274        -9.3410
  30   1.0000      -0.330070        -8.9817
  31   1.0000      -0.302647        -8.2354
  32   1.0000      -0.300148        -8.1674
  33   1.0000      -0.246676        -6.7124
  34   1.0000      -0.225954        -6.1485
  35   1.0000      -0.192494        -5.2380
  36   1.0000      -0.088225        -2.4007
  37   0.0000      -0.011208        -0.3050
  38   0.0000       0.008990         0.2446
  39   0.0000       0.022899         0.6231
  40   0.0000       0.025716         0.6998
  41   0.0000       0.036090         0.9821

                 SPIN DOWN ORBITALS
  NO   OCC          E(Eh)            E(eV)
   0   1.0000     -24.665980      -671.1954
   1   1.0000     -19.024603      -517.6858
   2   1.0000     -10.202810      -277.6326
   3   1.0000     -10.161152      -276.4990
   4   1.0000     -10.143779      -276.0263
   5   1.0000     -10.143240      -276.0116
   6   1.0000     -10.136292      -275.8225
   7   1.0000     -10.131083      -275.6808
   8   1.0000     -10.125160      -275.5196
   9   1.0000     -10.120613      -275.3959
  10   1.0000      -1.207396       -32.8549
  11   1.0000      -0.944238       -25.6940
  12   1.0000      -0.833718       -22.6866
  13   1.0000      -0.736099       -20.0303
  14   1.0000      -0.728676       -19.8283
  15   1.0000      -0.687851       -18.7174
  16   1.0000      -0.597612       -16.2619
  17   1.0000      -0.586803       -15.9677
  18   1.0000      -0.517258       -14.0753
  19   1.0000      -0.509454       -13.8630
  20   1.0000      -0.455662       -12.3992
  21   1.0000      -0.433761       -11.8032
  22   1.0000      -0.426924       -11.6172
  23   1.0000      -0.413306       -11.2466
  24   1.0000      -0.397216       -10.8088
  25   1.0000      -0.386296       -10.5117
  26   1.0000      -0.379287       -10.3209
  27   1.0000      -0.366185        -9.9644
  28   1.0000      -0.342737        -9.3263
  29   1.0000      -0.333965        -9.0876
  30   1.0000      -0.327315        -8.9067
  31   1.0000      -0.298618        -8.1258
  32   1.0000      -0.277300        -7.5457
  33   1.0000      -0.237956        -6.4751
  34   1.0000      -0.204468        -5.5639
  35   1.0000      -0.187146        -5.0925
  36   0.0000      -0.023495        -0.6393
  37   0.0000      -0.005221        -0.1421
  38   0.0000       0.011516         0.3134
  39   0.0000       0.024221         0.6591
  40   0.0000       0.027921         0.7598

MULLIKEN ATOMIC CHARGES AND SPIN POPULATIONS
--------------------------------------------
   0 C :   -0.442317    0.286462
   1 C :   -0.900334   -0.200479
   2 C :    0.596086    0.343565
   3 C :   -0.740889   -0.203178
   4 C :   -0.929820    0.301956
   5 C :    1.728394   -0.007185
   6 C :    0.420242    0.284638
   7 O :   -1.110728    0.231933
   8 C :   -0.614771   -0.058459
   9 H :    0.218272    0.022812
  10 H :    0.218530    0.022582
  11 H :    0.154787   -0.007629
  12 H :    0.115502   -0.019490
  13 H :    0.428810   -0.002134
  14 F :   -0.554369    0.019428
  15 H :    0.419305   -0.002628
  16 H :   -0.006699   -0.012193
Sum of atomic charges         :   -1.0000000

LOEWDIN ATOMIC CHARGES AND SPIN POPULATIONS
-------------------------------------------
   0 C :    0.151882    0.092842
   1 C :    0.142037    0.014707
   2 C :   -0.569437    0.132052
   3 C :    0.136208    0.014631
   4 C :    0.142075    0.103915
   5 C :   -0.212444    0.114570
   6 C :   -0.671168    0.195640
   7 O :    0.314645    0.204004
   8 C :    0.504182    0.038432
   9 H :   -0.186250    0.009832
  10 H :   -0.186552    0.009750
  11 H :   -0.208608   -0.000893
  12 H :   -0.222076    0.025647
  13 H :   -0.194793   -0.009224
  14 F :    0.466050    0.040254
  15 H :   -0.194676   -0.008067
  16 H :   -0.211075    0.021909

  Mayer bond orders larger than 0.100000
B(  0-C ,  1-C ) :   0.9035 B(  0-C ,  2-C ) :  -0.2675 B(  0-C ,  3-C ) :  -0.1859
B(  0-C ,  4-C ) :  -0.4001 B(  0-C ,  5-C ) :   0.1247 B(  0-C ,  6-C ) :   0.2493
B(  0-C , 12-H ) :   0.1220 B(  0-C , 16-H ) :   1.5123 B(  1-C ,  2-C ) :   1.2695
B(  1-C ,  3-C ) :   0.2972 B(  1-C ,  4-C ) :  -0.1077 B(  1-C ,  5-C ) :   0.1831
B(  1-C , 12-H ) :  -0.1035 B(  1-C , 14-F ) :   0.1580 B(  1-C , 15-H ) :   0.5534
B(  1-C , 16-H ) :  -0.1038 B(  2-C ,  3-C ) :   1.3079 B(  2-C ,  4-C ) :  -0.3173
B(  2-C , 14-F ) :   0.2772 B(  3-C ,  4-C ) :   1.3139 B(  3-C , 13-H ) :   0.5417
B(  3-C , 14-F ) :   0.1462 B(  3-C , 16-H ) :  -0.1450 B(  4-C ,  5-C ) :  -0.1398
B(  4-C ,  6-C ) :   0.4424 B(  4-C , 12-H ) :   1.1346 B(  4-C , 16-H ) :   0.1771
B(  5-C ,  6-C ) :   0.3354 B(  5-C ,  7-O ) :   0.1436 B(  5-C , 12-H ) :  -0.1186
B(  5-C , 16-H ) :  -0.2876 B(  6-C ,  7-O ) :   0.6742 B(  6-C ,  8-C ) :   0.8661
B(  6-C , 13-H ) :   0.1211 B(  7-O , 12-H ) :   0.1276 B(  8-C ,  9-H ) :   0.9848
B(  8-C , 10-H ) :   0.9852 B(  8-C , 11-H ) :   0.9699 B( 12-H , 16-H ) :   0.1562
B( 13-H , 14-F ) :   0.1033

Dispersion correction           -0.005423948
FINAL SINGLE POINT ENERGY      -484.132588725232

DIPOLE MOMENT
-------------

Method             : SCF
Type of density    : Electron Density
Multiplicity       :   2
Irrep              :   0
Energy             :  -484.1271647772115330 Eh
Relativity type    :
Basis              : AO
                                X                 Y                 Z
Electronic contribution:     11.364625798      -2.779301850       0.006029642
Nuclear contribution   :     -9.509705297       4.310792406      -0.010848024
                        -----------------------------------------
Total Dipole Moment    :      1.854920500       1.531490555      -0.004818382
                        -----------------------------------------
Magnitude (a.u.)       :      2.405455591
Magnitude (Debye)      :      6.114182210

VIBRATIONAL FREQUENCIES
-----------------------

Scaling factor for frequencies =  1.000000000  (already applied!)

     0:       0.00 cm**-1
     1:       0.00 cm**-1
     2:       0.00 cm**-1
     3:       0.00 cm**-1
     4:       0.00 cm**-1
     5:       0.00 cm**-1
     6:      93.27 cm**-1
     7:     102.91 cm**-1
     8:     129.73 cm**-1
     9:     186.52 cm**-1
    10:     257.26 cm**-1
    11:     335.01 cm**-1
    12:     357.41 cm**-1
    13:     382.23 cm**-1
    14:     444.77 cm**-1
    15:     469.33 cm**-1
    16:     535.56 cm**-1
    17:     548.72 cm**-1
    18:     638.15 cm**-1
    19:     681.98 cm**-1
    20:     684.50 cm**-1
    21:     768.67 cm**-1
    22:     784.74 cm**-1
    23:     801.28 cm**-1
    24:     930.65 cm**-1
    25:     946.81 cm**-1
    26:     949.95 cm**-1
    27:     996.69 cm**-1
    28:    1002.26 cm**-1
    29:    1069.33 cm**-1
    30:    1097.61 cm**-1
    31:    1150.03 cm**-1
    32:    1205.50 cm**-1
    33:    1276.85 cm**-1
    34:    1315.38 cm**-1
    35:    1350.12 cm**-1
    36:    1364.14 cm**-1
    37:    1419.06 cm**-1
    38:    1446.43 cm**-1
    39:    1462.68 cm**-1
    40:    1495.97 cm**-1
    41:    1509.59 cm**-1
    42:    1544.14 cm**-1
    43:    1625.82 cm**-1
    44:    2998.52 cm**-1
    45:    3044.52 cm**-1
    46:    3123.63 cm**-1
    47:    3181.42 cm**-1
    48:    3182.37 cm**-1
    49:    3199.98 cm**-1
    50:    3202.57 cm**-1

IR SPECTRUM
-----------

 Mode   freq       eps      Int      T**2         TX        TY        TZ
       cm**-1   L/(mol*cm) km/mol    a.u.
----------------------------------------------------------------------------
  6:     93.27   0.000026    0.13  0.000087  ( 0.000184  0.000190 -0.009325)
  7:    102.91   0.001071    5.41  0.003247  (-0.000214  0.000468 -0.056976)
  8:    129.73   0.000594    3.00  0.001430  ( 0.000099  0.000198 -0.037814)
  9:    186.52   0.001478    7.47  0.002473  ( 0.048109 -0.012577 -0.000223)
 10:    257.26   0.000023    0.12  0.000028  ( 0.000262  0.000087  0.005318)
 11:    335.01   0.000276    1.40  0.000258  ( 0.003943 -0.015546 -0.000553)
 12:    357.41   0.002357   11.91  0.002058  ( 0.000133  0.000051 -0.045367)
 13:    382.23   0.001184    5.99  0.000967  ( 0.024500  0.019149 -0.000009)
 14:    444.77   0.000216    1.09  0.000151  ( 0.000006  0.000122  0.012306)
 15:    469.33   0.000289    1.46  0.000192  ( 0.013318 -0.003806  0.000032)
 16:    535.56   0.006972   35.23  0.004062  (-0.000173 -0.000120 -0.063735)
 17:    548.72   0.009979   50.43  0.005675  ( 0.068777 -0.030734  0.000322)
 18:    638.15   0.000097    0.49  0.000048  (-0.000024  0.006894 -0.000169)
 19:    681.98   0.003340   16.88  0.001528  ( 0.000172  0.000031  0.039092)
 20:    684.50   0.018825   95.13  0.008582  (-0.090939 -0.017670 -0.000126)
 21:    768.67   0.019406   98.07  0.007878  ( 0.000296 -0.000107 -0.088760)
 22:    784.74   0.007409   37.44  0.002946  (-0.000919 -0.000261 -0.054273)
 23:    801.28   0.034185  172.76  0.013314  (-0.115267 -0.005194  0.000166)
 24:    930.65   0.000439    2.22  0.000147  (-0.000463  0.000269 -0.012122)
 25:    946.81   0.025456  128.64  0.008390  ( 0.091413 -0.005806 -0.000294)
 26:    949.95   0.000199    1.01  0.000065  (-0.007753  0.000433 -0.002278)
 27:    996.69   0.008762   44.28  0.002743  ( 0.051858 -0.007347 -0.000259)
 28:   1002.26   0.000304    1.54  0.000095  ( 0.000787 -0.000118  0.009703)
 29:   1069.33   0.001342    6.78  0.000392  ( 0.010290 -0.016907 -0.000057)
 30:   1097.61   0.014657   74.07  0.004167  ( 0.029510  0.057413 -0.000031)
 31:   1150.03   0.001227    6.20  0.000333  ( 0.018131  0.002041  0.000168)
 32:   1205.50   0.043593  220.30  0.011285  ( 0.106175  0.003409  0.000109)
 33:   1276.85   0.010556   53.34  0.002580  (-0.039761 -0.031604  0.000187)
 34:   1315.38   0.007123   35.99  0.001690  ( 0.028709  0.029421 -0.000125)
 35:   1350.12   0.017201   86.93  0.003976  (-0.026266  0.057323 -0.000098)
 36:   1364.14   0.012308   62.20  0.002816  (-0.017820 -0.049980 -0.000035)
 37:   1419.06   0.011374   57.48  0.002501  (-0.028370 -0.041188  0.000136)
 38:   1446.43   0.078868  398.56  0.017015  (-0.120936 -0.048887  0.000319)
 39:   1462.68   0.001976    9.98  0.000422  (-0.000943 -0.000208 -0.020508)
 40:   1495.97   0.074148  374.71  0.015467  ( 0.119197  0.035491 -0.000279)
 41:   1509.59   0.001503    7.59  0.000311  ( 0.017610  0.000746 -0.000042)
 42:   1544.14   0.066875  337.96  0.013515  (-0.099894 -0.059465  0.000398)
 43:   1625.82   0.007960   40.23  0.001528  (-0.025708 -0.029444  0.000010)
 44:   2998.52   0.028890  146.00  0.003007  ( 0.039095 -0.038446 -0.000273)
 45:   3044.52   0.015580   78.73  0.001597  ( 0.000000 -0.000001  0.039962)
 46:   3123.63   0.007828   39.56  0.000782  (-0.025296 -0.011924 -0.000067)
 47:   3181.42   0.003956   19.99  0.000388  ( 0.018793 -0.005901  0.000015)
 48:   3182.37   0.002286   11.55  0.000224  (-0.014973  0.000112 -0.000044)
 49:   3199.98   0.007926   40.05  0.000773  ( 0.001534  0.027759 -0.000010)
 50:   3202.57   0.001780    8.99  0.000173  (-0.009017  0.009597  0.000041)

--------------------------
THERMOCHEMISTRY AT 298.15K
--------------------------

Temperature         ...   298.15 K
Pressure            ...     1.00 atm
Total Mass          ...   138.14 AMU
Quasi RRHO          ...     True
Cut-Off Frequency   ...     1.00 cm^-1

Throughout the following assumptions are being made:
  (1) The electronic state is orbitally nondegenerate
      but the spin degeneracy is treated
  (2) There are no thermally accessible electronically excited states
  (3) Hindered rotations indicated by low frequency modes are not
      treated as such but are treated as vibrations and this may
      cause some error
  (4) All equations used are the standard statistical mechanics
      equations for an ideal gas
  (5) All vibrations are strictly harmonic

freq.      93.27  E(vib)   ...       0.47
freq.     102.91  E(vib)   ...       0.46
freq.     129.73  E(vib)   ...       0.43
freq.     186.52  E(vib)   ...       0.37
freq.     257.26  E(vib)   ...       0.30
freq.     335.01  E(vib)   ...       0.24
freq.     357.41  E(vib)   ...       0.22
freq.     382.23  E(vib)   ...       0.21
freq.     444.77  E(vib)   ...       0.17
freq.     469.33  E(vib)   ...       0.16
freq.     535.56  E(vib)   ...       0.12
freq.     548.72  E(vib)   ...       0.12
freq.     638.15  E(vib)   ...       0.09
freq.     681.98  E(vib)   ...       0.08
freq.     684.50  E(vib)   ...       0.07
freq.     768.67  E(vib)   ...       0.06
freq.     784.74  E(vib)   ...       0.05
freq.     801.28  E(vib)   ...       0.05
freq.     930.65  E(vib)   ...       0.03
freq.     946.81  E(vib)   ...       0.03
freq.     949.95  E(vib)   ...       0.03
freq.     996.69  E(vib)   ...       0.02
freq.    1002.26  E(vib)   ...       0.02
freq.    1069.33  E(vib)   ...       0.02
freq.    1097.61  E(vib)   ...       0.02
freq.    1150.03  E(vib)   ...       0.01
freq.    1205.50  E(vib)   ...       0.01
freq.    1276.85  E(vib)   ...       0.01
freq.    1315.38  E(vib)   ...       0.01
freq.    1350.12  E(vib)   ...       0.01
freq.    1364.14  E(vib)   ...       0.01
freq.    1419.06  E(vib)   ...       0.00
freq.    1446.43  E(vib)   ...       0.00
freq.    1462.68  E(vib)   ...       0.00
freq.    1495.97  E(vib)   ...       0.00
freq.    1509.59  E(vib)   ...       0.00
freq.    1544.14  E(vib)   ...       0.00
freq.    1625.82  E(vib)   ...       0.00
freq.    2998.52  E(vib)   ...       0.00
freq.    3044.52  E(vib)   ...       0.00
freq.    3123.63  E(vib)   ...       0.00
freq.    3181.42  E(vib)   ...       0.00
freq.    3182.37  E(vib)   ...       0.00
freq.    3199.98  E(vib)   ...       0.00
freq.    3202.57  E(vib)   ...       0.00

------------
INNER ENERGY
------------

The inner energy is: U= E(el) + E(ZPE) + E(vib) + E(rot) + E(trans)
    E(el)   - is the total energy from the electronic structure calculation
              = E(kin-el) + E(nuc-el) + E(el-el) + E(nuc-nuc)
    E(ZPE)  - the the zero temperature vibrational energy from the frequency calculation
    E(vib)  - the the finite temperature correction to E(ZPE) due to population
              of excited vibrational states
    E(rot)  - is the rotational thermal energy
    E(trans)- is the translational thermal energy

Summary of contributions to the inner energy U:
Electronic energy                ...   -484.13258873 Eh
Zero point energy                ...      0.12596921 Eh      79.05 kcal/mol
Thermal vibrational correction   ...      0.00618498 Eh       3.88 kcal/mol
Thermal rotational correction    ...      0.00141627 Eh       0.89 kcal/mol
Thermal translational correction ...      0.00141627 Eh       0.89 kcal/mol
-----------------------------------------------------------------------
Total thermal energy                   -483.99760200 Eh

Summary of corrections to the electronic energy:
(perhaps to be used in another calculation)
Total thermal correction                  0.00901752 Eh       5.66 kcal/mol
Non-thermal (ZPE) correction              0.12596921 Eh      79.05 kcal/mol
-----------------------------------------------------------------------
Total correction                          0.13498673 Eh      84.71 kcal/mol

--------
ENTHALPY
--------

The enthalpy is H = U + kB*T
                kB is Boltzmann's constant
Total thermal energy              ...   -483.99760200 Eh
Thermal Enthalpy correction       ...      0.00094421 Eh       0.59 kcal/mol
-----------------------------------------------------------------------
Total Enthalpy                    ...   -483.99665779 Eh

Note: Only C1 symmetry has been detected, increase convergence thresholds
      if your molecule has a higher symmetry. Symmetry factor of 1.0 is
      used for the rotational entropy correction.

Note: Rotational entropy computed according to Herzberg
Infrared and Raman Spectra, Chapter V,1, Van Nostrand Reinhold, 1945
Point Group:  C1, Symmetry Number:   1
Rotational constants in cm-1:     0.121084     0.025672     0.021264

Vibrational entropy computed according to the QRRHO of S. Grimme
Chem.Eur.J. 2012 18 9955 using a reference frequency of 100.0 cm-1

-------
ENTROPY
-------

The entropy contributions are T*S = T*(S(el)+S(vib)+S(rot)+S(trans))
     S(el)   - electronic entropy
     S(vib)  - vibrational entropy
     S(rot)  - rotational entropy
     S(trans)- translational entropy
The entropies will be listed as multiplied by the temperature to get
units of energy

Electronic entropy                ...      0.00065446 Eh      0.41 kcal/mol
Vibrational entropy               ...      0.01039717 Eh      6.52 kcal/mol
Rotational entropy                ...      0.01405439 Eh      8.82 kcal/mol
Translational entropy             ...      0.01932885 Eh     12.13 kcal/mol
-----------------------------------------------------------------------
Final entropy term                ...      0.04443486 Eh     27.88 kcal/mol

In case the symmetry of your molecule has not been determined correctly
or in case you have a reason to use a different symmetry number we print
out the resulting rotational entropy values for sn=1,12:

 non-linear molecules -----------------------------------
|  sn= 1 | S(rot)=       0.01405439 Eh      8.82 kcal/mol|
|  sn= 2 | S(rot)=       0.01339993 Eh      8.41 kcal/mol|
|  sn= 3 | S(rot)=       0.01301710 Eh      8.17 kcal/mol|
|  sn= 4 | S(rot)=       0.01274547 Eh      8.00 kcal/mol|
|  sn= 5 | S(rot)=       0.01253479 Eh      7.87 kcal/mol|
|  sn= 6 | S(rot)=       0.01236264 Eh      7.76 kcal/mol|
|  sn= 7 | S(rot)=       0.01221710 Eh      7.67 kcal/mol|
|  sn= 8 | S(rot)=       0.01209102 Eh      7.59 kcal/mol|
|  sn= 9 | S(rot)=       0.01197981 Eh      7.52 kcal/mol|
|  sn=10 | S(rot)=       0.01188033 Eh      7.46 kcal/mol|
|  sn=11 | S(rot)=       0.01179034 Eh      7.40 kcal/mol|
|  sn=12 | S(rot)=       0.01170819 Eh      7.35 kcal/mol|
 linear molecules ---------------------------------------
|  Dinfh | S(rot)=       0.00896161 Eh      5.62 kcal/mol|

                             ****ORCA TERMINATED NORMALLY****
TOTAL RUN TIME: 0 days 1 hours 0 minutes 53 seconds 450 msec
