                         Program Version 6.0.0  -   RELEASE  -
|  1> !r2SCAN aug-cc-pVTZ d3 TightSCF SlowConv RIJCOSX defgrid2
|  2>
|  3> %pal
|  4> nprocs 6
|  5> end
|  6>
|  7> %scf
|  8> MaxIter 1500
|  9> end
| 10>
| 11> %maxcore 3000
| 12>
| 13> !CPCM
| 14> %cpcm smd true
| 15> SMDsolvent "MeCN"
| 16> surfacetype gepol_ses
| 17> rsolv 2.19
| 18> end
| 19>
| 20> * xyz -1 2
| 21>   C          -1.16908364743389     -1.25106043112589     -0.00046711885945
| 22>   C          -2.51558895662628     -0.94805778331016     -0.00048970260602
| 23>   C          -2.96951415995677      0.38786935411419     -0.00003437372110
| 24>   C          -1.99949719417351      1.41257476413842      0.00046952009611
| 25>   C          -0.64650719425624      1.13368035065037      0.00050575201273
| 26>   C          -0.16707249946699     -0.21739071251225      0.00002200149285
| 27>   C           1.18771930240505     -0.62830725495849      0.00000084051024
| 28>   O           1.69166054938407     -1.73447405522234     -0.00027921149921
| 29>   Cl          2.41415222066200      0.84117378911090      0.00088007792741
| 30>   H           0.08783721642061      1.94210741862158      0.00088650713536
| 31>   H          -2.32239478311716      2.46171169296406      0.00083360203305
| 32>   H          -4.03893270236722      0.62157662484535     -0.00006413910783
| 33>   H          -3.24555265578784     -1.76825494852385     -0.00088549117391
| 34>   H          -0.82790279568582     -2.29013880879190     -0.00083276424023
| 35> *
| 36>
| 37>                          ****END OF INPUT****

CARTESIAN COORDINATES (ANGSTROEM)
---------------------------------
  C     -1.169084   -1.251060   -0.000467
  C     -2.515589   -0.948058   -0.000490
  C     -2.969514    0.387869   -0.000034
  C     -1.999497    1.412575    0.000470
  C     -0.646507    1.133680    0.000506
  C     -0.167072   -0.217391    0.000022
  C      1.187719   -0.628307    0.000001
  O      1.691661   -1.734474   -0.000279
  Cl     2.414152    0.841174    0.000880
  H      0.087837    1.942107    0.000887
  H     -2.322395    2.461712    0.000834
  H     -4.038933    0.621577   -0.000064
  H     -3.245553   -1.768255   -0.000885
  H     -0.827903   -2.290139   -0.000833

 Total Charge           Charge          ....   -1
 Multiplicity           Mult            ....    2
 Number of Electrons    NEL             ....   73
 Basis Dimension        Dim             ....  533

ORBITAL ENERGIES
----------------
                 SPIN UP ORBITALS
  NO   OCC          E(Eh)            E(eV)
   0   1.0000    -101.174680     -2753.1030
   1   1.0000     -18.920739      -514.8595
   2   1.0000     -10.108327      -275.0616
   3   1.0000     -10.030000      -272.9302
   4   1.0000     -10.023711      -272.7590
   5   1.0000     -10.022994      -272.7395
   6   1.0000     -10.021897      -272.7097
   7   1.0000     -10.021542      -272.7000
   8   1.0000     -10.017681      -272.5950
   9   1.0000      -9.327595      -253.8168
  10   1.0000      -7.071117      -192.4149
  11   1.0000      -7.065044      -192.2496
  12   1.0000      -7.064395      -192.2320
  13   1.0000      -0.984827       -26.7985
  14   1.0000      -0.802448       -21.8357
  15   1.0000      -0.751384       -20.4462
  16   1.0000      -0.703567       -19.1450
  17   1.0000      -0.695509       -18.9258
  18   1.0000      -0.593373       -16.1465
  19   1.0000      -0.548489       -14.9252
  20   1.0000      -0.500742       -13.6259
  21   1.0000      -0.452908       -12.3243
  22   1.0000      -0.414335       -11.2746
  23   1.0000      -0.403392       -10.9768
  24   1.0000      -0.379607       -10.3296
  25   1.0000      -0.375699       -10.2233
  26   1.0000      -0.368738       -10.0339
  27   1.0000      -0.361472        -9.8361
  28   1.0000      -0.323121        -8.7926
  29   1.0000      -0.311359        -8.4725
  30   1.0000      -0.283106        -7.7037
  31   1.0000      -0.262363        -7.1392
  32   1.0000      -0.259355        -7.0574
  33   1.0000      -0.230458        -6.2711
  34   1.0000      -0.228933        -6.2296
  35   1.0000      -0.224861        -6.1188
  36   1.0000      -0.094343        -2.5672
  37   0.0000      -0.021750        -0.5918
  38   0.0000      -0.000570        -0.0155
  39   0.0000       0.014894         0.4053
  40   0.0000       0.022162         0.6031
  41   0.0000       0.025052         0.6817

                 SPIN DOWN ORBITALS
  NO   OCC          E(Eh)            E(eV)
   0   1.0000    -101.174644     -2753.1020
   1   1.0000     -18.914806      -514.6980
   2   1.0000     -10.102814      -274.9115
   3   1.0000     -10.029522      -272.9172
   4   1.0000     -10.025413      -272.8054
   5   1.0000     -10.024569      -272.7824
   6   1.0000     -10.018521      -272.6178
   7   1.0000     -10.018343      -272.6130
   8   1.0000     -10.012516      -272.4544
   9   1.0000      -9.327575      -253.8162
  10   1.0000      -7.071281      -192.4193
  11   1.0000      -7.064759      -192.2419
  12   1.0000      -7.064393      -192.2319
  13   1.0000      -0.975496       -26.5446
  14   1.0000      -0.798068       -21.7165
  15   1.0000      -0.748816       -20.3763
  16   1.0000      -0.697963       -18.9925
  17   1.0000      -0.692036       -18.8313
  18   1.0000      -0.580700       -15.8017
  19   1.0000      -0.547328       -14.8936
  20   1.0000      -0.496513       -13.5108
  21   1.0000      -0.448137       -12.1944
  22   1.0000      -0.411932       -11.2092
  23   1.0000      -0.398890       -10.8544
  24   1.0000      -0.378254       -10.2928
  25   1.0000      -0.367787       -10.0080
  26   1.0000      -0.358761        -9.7624
  27   1.0000      -0.351432        -9.5630
  28   1.0000      -0.309150        -8.4124
  29   1.0000      -0.309103        -8.4111
  30   1.0000      -0.282236        -7.6800
  31   1.0000      -0.258600        -7.0369
  32   1.0000      -0.256835        -6.9888
  33   1.0000      -0.221432        -6.0255
  34   1.0000      -0.221383        -6.0241
  35   1.0000      -0.211107        -5.7445
  36   0.0000      -0.054630        -1.4866
  37   0.0000      -0.016352        -0.4450
  38   0.0000       0.004118         0.1120
  39   0.0000       0.019425         0.5286
  40   0.0000       0.026743         0.7277

MULLIKEN ATOMIC CHARGES AND SPIN POPULATIONS
--------------------------------------------
   0 C :   -0.934018    0.278251
   1 C :   -0.404156   -0.179905
   2 C :   -0.396427    0.372544
   3 C :   -0.601915   -0.164408
   4 C :   -0.966516    0.281707
   5 C :    1.692413    0.009549
   6 C :    0.402520    0.263449
   7 O :   -0.839562    0.202607
   8 Cl:   -0.463770    0.010489
   9 H :    0.190345   -0.017326
  10 H :    0.409620   -0.014544
  11 H :    0.496843   -0.014249
  12 H :    0.350293   -0.007187
  13 H :    0.064329   -0.020978
Sum of atomic charges         :   -1.0000000

LOEWDIN ATOMIC CHARGES AND SPIN POPULATIONS
-------------------------------------------
   0 C :    0.131904    0.100514
   1 C :    0.132077    0.025359
   2 C :    0.146475    0.140799
   3 C :    0.128883    0.026825
   4 C :    0.096660    0.097807
   5 C :   -0.334052    0.118922
   6 C :   -1.144485    0.208542
   7 O :    0.294726    0.184721
   8 Cl:    0.603083    0.029947
   9 H :   -0.275573    0.020685
  10 H :   -0.187746   -0.006644
  11 H :   -0.200242    0.037489
  12 H :   -0.186396   -0.007310
  13 H :   -0.205316    0.022344

  Mayer bond orders larger than 0.100000
B(  0-C ,  1-C ) :   1.2198 B(  0-C ,  4-C ) :  -0.1664 B(  0-C ,  5-C ) :   0.1081
B(  0-C ,  6-C ) :   0.2455 B(  0-C , 12-H ) :  -0.1087 B(  0-C , 13-H ) :   1.0319
B(  1-C ,  2-C ) :   0.9071 B(  1-C ,  4-C ) :  -0.1248 B(  1-C , 12-H ) :   0.8104
B(  2-C ,  3-C ) :   0.9378 B(  2-C ,  5-C ) :  -0.1647 B(  2-C ,  6-C ) :   0.1444
B(  2-C , 11-H ) :   0.5953 B(  3-C ,  4-C ) :   1.2169 B(  3-C , 10-H ) :   0.7265
B(  4-C ,  6-C ) :   0.3387 B(  4-C ,  9-H ) :   1.2558 B(  4-C , 10-H ) :  -0.1152
B(  4-C , 13-H ) :   0.1101 B(  5-C ,  6-C ) :   0.6476 B(  5-C ,  7-O ) :   0.2290
B(  5-C , 13-H ) :  -0.1054 B(  6-C ,  7-O ) :   0.8045 B(  6-C ,  8-Cl) :   0.6897
B(  7-O ,  8-Cl) :   0.1029 B(  7-O , 13-H ) :   0.1550 B(  8-Cl,  9-H ) :  -0.1309

Dispersion correction           -0.004718898
FINAL SINGLE POINT ENERGY      -805.232887129677

DIPOLE MOMENT
-------------

Method             : SCF
Type of density    : Electron Density
Multiplicity       :   2
Irrep              :   0
Energy             :  -805.2281682320518712 Eh
Relativity type    :
Basis              : AO
                                X                 Y                 Z
Electronic contribution:     11.134962471       1.010637463       0.001888039
Nuclear contribution   :    -12.989017313      -0.288558488      -0.001883982
                        -----------------------------------------
Total Dipole Moment    :     -1.854054842       0.722078975       0.000004057
                        -----------------------------------------
Magnitude (a.u.)       :      1.989702843
Magnitude (Debye)      :      5.057422708

Rotational constants in cm-1:             0.100365             0.030413             0.023340
Rotational constants in MHz :          3008.857541           911.756969           699.723685

                             ****ORCA TERMINATED NORMALLY****
TOTAL RUN TIME: 0 days 0 hours 2 minutes 45 seconds 645 msec
