                         Program Version 6.0.0  -   RELEASE  -
|  1> !r2SCANh aug-cc-pVTZ d3 TightSCF SlowConv RIJCOSX defgrid2
|  2>
|  3> %pal
|  4> nprocs 4
|  5> end
|  6>
|  7> %scf
|  8> MaxIter 1500
|  9> end
| 10>
| 11> %maxcore 3000
| 12>
| 13> !CPCM
| 14> %cpcm smd true
| 15> SMDsolvent "MeCN"
| 16> surfacetype gepol_ses
| 17> rsolv 2.19
| 18> end
| 19>
| 20> * xyz 0 1
| 21> C           1.25000164855842     -1.41071448361037     -0.00000168415599
| 22> C           2.42472534447790     -0.69479139615512     -0.00000685047100
| 23> C           2.39854270226079      0.72067524520134     -0.00000877481015
| 24> C           1.20117735810590      1.39751150319993     -0.00000445095683
| 25> C          -0.02745588139686      0.68852480495358      0.00000564240260
| 26> N          -1.18625775877000      1.39381645036295      0.00001070560090
| 27> C          -2.31490188933646      0.73049306279294      0.00001689560908
| 28> C          -2.40570196692451     -0.68397826108981      0.00001755935062
| 29> C          -1.24368635715401     -1.41618109472248      0.00000969922177
| 30> C           0.00094011374072     -0.74022051327369      0.00000330710167
| 31> H          -1.26232776653674     -2.51106064954577      0.00000897425095
| 32> H          -3.38563440939795     -1.16889742637107      0.00002394159015
| 33> H          -3.23552246654660      1.32983924434354      0.00002054423920
| 34> H           1.15201317629262      2.48898402488494     -0.00000554947415
| 35> H           3.34113721025286      1.27611845570769     -0.00001383228755
| 36> H           3.38561855542436     -1.21756928095046     -0.00000963669760
| 37> H           1.26320168694954     -2.50529278572813     -0.00000049051368
| 38> *
| 39>
| 40>                          ****END OF INPUT****

CARTESIAN COORDINATES (ANGSTROEM)
---------------------------------
  C      1.250002   -1.410714   -0.000002
  C      2.424725   -0.694791   -0.000007
  C      2.398543    0.720675   -0.000009
  C      1.201177    1.397512   -0.000004
  C     -0.027456    0.688525    0.000006
  N     -1.186258    1.393816    0.000011
  C     -2.314902    0.730493    0.000017
  C     -2.405702   -0.683978    0.000018
  C     -1.243686   -1.416181    0.000010
  C      0.000940   -0.740221    0.000003
  H     -1.262328   -2.511061    0.000009
  H     -3.385634   -1.168897    0.000024
  H     -3.235522    1.329839    0.000021
  H      1.152013    2.488984   -0.000006
  H      3.341137    1.276118   -0.000014
  H      3.385619   -1.217569   -0.000010
  H      1.263202   -2.505293   -0.000000

 Total Charge           Charge          ....    0
 Multiplicity           Mult            ....    1
 Number of Electrons    NEL             ....   68
 Basis Dimension        Dim             ....  621

ORBITAL ENERGIES
----------------

  NO   OCC          E(Eh)            E(eV)
   0   2.0000     -14.307420      -389.3247
   1   2.0000     -10.200416      -277.5674
   2   2.0000     -10.197443      -277.4865
   3   2.0000     -10.179385      -276.9951
   4   2.0000     -10.178897      -276.9819
   5   2.0000     -10.168156      -276.6896
   6   2.0000     -10.168020      -276.6859
   7   2.0000     -10.167960      -276.6843
   8   2.0000     -10.166320      -276.6396
   9   2.0000     -10.163210      -276.5550
  10   2.0000      -0.955521       -26.0011
  11   2.0000      -0.854465       -23.2512
  12   2.0000      -0.809797       -22.0357
  13   2.0000      -0.753917       -20.5151
  14   2.0000      -0.741806       -20.1856
  15   2.0000      -0.640921       -17.4404
  16   2.0000      -0.627942       -17.0872
  17   2.0000      -0.598110       -16.2754
  18   2.0000      -0.521216       -14.1830
  19   2.0000      -0.507988       -13.8231
  20   2.0000      -0.498058       -13.5528
  21   2.0000      -0.445205       -12.1146
  22   2.0000      -0.429358       -11.6834
  23   2.0000      -0.417969       -11.3735
  24   2.0000      -0.416000       -11.3199
  25   2.0000      -0.398226       -10.8363
  26   2.0000      -0.390491       -10.6258
  27   2.0000      -0.346731        -9.4350
  28   2.0000      -0.345386        -9.3984
  29   2.0000      -0.336675        -9.1614
  30   2.0000      -0.309044        -8.4095
  31   2.0000      -0.255636        -6.9562
  32   2.0000      -0.254443        -6.9237
  33   2.0000      -0.235974        -6.4212
  34   0.0000      -0.074471        -2.0265
  35   0.0000      -0.037099        -1.0095
  36   0.0000      -0.008617        -0.2345
  37   0.0000       0.010487         0.2854
  38   0.0000       0.023212         0.6316

MULLIKEN ATOMIC CHARGES
-----------------------
   0 C :   -1.017413
   1 C :   -0.491727
   2 C :   -0.225010
   3 C :   -0.980038
   4 C :    0.659523
   5 N :   -0.680679
   6 C :   -0.574758
   7 C :   -0.296516
   8 C :   -0.928922
   9 C :    1.963453
  10 H :    0.381075
  11 H :    0.226724
  12 H :    0.555222
  13 H :    0.374906
  14 H :    0.432820
  15 H :    0.594921
  16 H :    0.006419
Sum of atomic charges:   -0.0000000

LOEWDIN ATOMIC CHARGES
----------------------
   0 C :    0.215273
   1 C :    0.198364
   2 C :    0.195446
   3 C :    0.202583
   4 C :   -0.323577
   5 N :    0.367599
   6 C :    0.004846
   7 C :    0.217461
   8 C :    0.222898
   9 C :   -0.129956
  10 H :   -0.150216
  11 H :   -0.168731
  12 H :   -0.180011
  13 H :   -0.173607
  14 H :   -0.168521
  15 H :   -0.169039
  16 H :   -0.160812

  Mayer bond orders larger than 0.100000
B(  0-C ,  1-C ) :   1.1508 B(  0-C ,  2-C ) :  -0.2143 B(  0-C ,  4-C ) :  -0.5793
B(  0-C ,  7-C ) :   0.1174 B(  0-C ,  8-C ) :   0.3829 B(  0-C , 14-H ) :   0.1152
B(  0-C , 15-H ) :  -0.1587 B(  0-C , 16-H ) :   1.5521 B(  1-C ,  2-C ) :   0.9271
B(  1-C ,  3-C ) :   0.1043 B(  1-C ,  4-C ) :  -0.1274 B(  1-C ,  9-C ) :   0.1413
B(  1-C , 15-H ) :   0.3781 B(  1-C , 16-H ) :  -0.1068 B(  2-C ,  3-C ) :   1.1507
B(  2-C ,  4-C ) :  -0.2223 B(  2-C ,  7-C ) :   0.1358 B(  2-C ,  8-C ) :   0.1417
B(  2-C ,  9-C ) :  -0.1781 B(  2-C , 14-H ) :   0.6691 B(  3-C ,  4-C ) :   0.6615
B(  3-C ,  5-N ) :   0.2336 B(  3-C ,  9-C ) :   0.2982 B(  3-C , 13-H ) :   0.5403
B(  4-C ,  5-N ) :  -0.1542 B(  4-C ,  6-C ) :   0.3182 B(  4-C ,  7-C ) :  -0.1377
B(  4-C ,  8-C ) :   0.6496 B(  4-C ,  9-C ) :   0.6385 B(  4-C , 12-H ) :   0.1198
B(  4-C , 16-H ) :   0.1403 B(  5-N ,  6-C ) :   1.6584 B(  5-N , 13-H ) :   0.1212
B(  6-C ,  7-C ) :   0.7272 B(  6-C ,  8-C ) :   0.3855 B(  6-C ,  9-C ) :  -0.5275
B(  6-C , 12-H ) :   0.4162 B(  7-C ,  8-C ) :   1.1053 B(  7-C ,  9-C ) :  -0.3526
B(  7-C , 11-H ) :   1.0397 B(  8-C ,  9-C ) :  -0.3175 B(  8-C , 10-H ) :   0.7275
B(  9-C , 12-H ) :   0.1522 B(  9-C , 16-H ) :  -0.1333

Dispersion correction           -0.006155232
FINAL SINGLE POINT ENERGY      -401.837768485076

DIPOLE MOMENT
-------------

Method             : SCF
Type of density    : Electron Density
Multiplicity       :   1
Irrep              :   0
Energy             :  -401.8316132526719002 Eh
Relativity type    :
Basis              : AO
                                X                 Y                 Z
Electronic contribution:     -1.086798596       0.904857642      -0.000180313
Nuclear contribution   :      1.170564310      -2.171626680      -0.000005487
                        -----------------------------------------
Total Dipole Moment    :      0.083765714      -1.266769038      -0.000185800
                        -----------------------------------------
Magnitude (a.u.)       :      1.269535555
Magnitude (Debye)      :      3.226902934

Rotational constants in cm-1:             0.105214             0.042414             0.030228
Rotational constants in MHz :          3154.234858          1271.541430           906.223008

                             ****ORCA TERMINATED NORMALLY****
TOTAL RUN TIME: 0 days 0 hours 5 minutes 28 seconds 471 msec
