                         Program Version 6.0.0  -   RELEASE  -
|  1> !PBE0 freq def2-SV(p) d3 TightSCF SlowConv RIJCOSX defgrid2
|  2>
|  3> %pal
|  4> nprocs 12
|  5> end
|  6>
|  7> %scf
|  8> MaxIter 1500
|  9> end
| 10>
| 11> %maxcore 5000
| 12>
| 13> !CPCM
| 14> %cpcm smd true
| 15> SMDsolvent "MeCN"
| 16> surfacetype gepol_ses
| 17> rsolv 2.19
| 18> end
| 19>
| 20> * xyz 0 1
| 21> C          -0.01802896845239      1.20246687236424     -0.00040350386804
| 22> C           1.37385508581204      1.22350085476315     -0.00007157743814
| 23> C           2.05875510357667      0.01432826825298      0.00016628513087
| 24> C           1.39879383638469     -1.21113592131215      0.00045500919134
| 25> C           0.01026733923864     -1.21463484349818     -0.00000952732553
| 26> C          -0.71507796756793     -0.01397305883000     -0.00046531199644
| 27> C          -2.20770845719811     -0.08895487988958     -0.00088664992835
| 28> O          -2.76782245285371     -1.16826134038308     -0.00232674819360
| 29> C          -2.98941519758123      1.19654476720337      0.00017535041410
| 30> H          -2.74823696252798      1.80459409217493      0.88970488126560
| 31> H          -2.74859212023059      1.80573205230095     -0.88871175009914
| 32> H          -4.06494197679718      0.96411929325427      0.00032057105064
| 33> H          -0.54166635921363     -2.15800654701472      0.00017461779214
| 34> H           1.97725312728580     -2.13848070328047      0.00086453618096
| 35> F           3.39145191021298      0.02773528277714      0.00012049294654
| 36> H           1.93162292073543      2.16319626520343     -0.00020583790153
| 37> H          -0.55614076082348      2.15332164591368     -0.00062723722141
| 38> *
| 39>
| 40>                          ****END OF INPUT****

CARTESIAN COORDINATES (ANGSTROEM)
---------------------------------
  C     -0.018029    1.202467   -0.000404
  C      1.373855    1.223501   -0.000072
  C      2.058755    0.014328    0.000166
  C      1.398794   -1.211136    0.000455
  C      0.010267   -1.214635   -0.000010
  C     -0.715078   -0.013973   -0.000465
  C     -2.207708   -0.088955   -0.000887
  O     -2.767822   -1.168261   -0.002327
  C     -2.989415    1.196545    0.000175
  H     -2.748237    1.804594    0.889705
  H     -2.748592    1.805732   -0.888712
  H     -4.064942    0.964119    0.000321
  H     -0.541666   -2.158007    0.000175
  H      1.977253   -2.138481    0.000865
  F      3.391452    0.027735    0.000120
  H      1.931623    2.163196   -0.000206
  H     -0.556141    2.153322   -0.000627

 Total Charge           Charge          ....    0
 Multiplicity           Mult            ....    1
 Number of Electrons    NEL             ....   72
 Basis Dimension        Dim             ....  154

ORBITAL ENERGIES
----------------

  NO   OCC          E(Eh)            E(eV)
   0   2.0000     -24.795386      -674.7168
   1   2.0000     -19.198393      -522.4148
   2   2.0000     -10.331521      -281.1350
   3   2.0000     -10.322651      -280.8936
   4   2.0000     -10.254563      -279.0408
   5   2.0000     -10.250849      -278.9398
   6   2.0000     -10.248725      -278.8820
   7   2.0000     -10.246751      -278.8283
   8   2.0000     -10.246565      -278.8232
   9   2.0000     -10.220930      -278.1256
  10   2.0000      -1.254428       -34.1347
  11   2.0000      -1.059617       -28.8336
  12   2.0000      -0.893238       -24.3062
  13   2.0000      -0.793891       -21.6029
  14   2.0000      -0.780992       -21.2519
  15   2.0000      -0.743667       -20.2362
  16   2.0000      -0.653579       -17.7848
  17   2.0000      -0.644818       -17.5464
  18   2.0000      -0.572817       -15.5871
  19   2.0000      -0.569029       -15.4841
  20   2.0000      -0.521762       -14.1979
  21   2.0000      -0.499172       -13.5831
  22   2.0000      -0.497214       -13.5299
  23   2.0000      -0.466619       -12.6973
  24   2.0000      -0.456093       -12.4109
  25   2.0000      -0.449848       -12.2410
  26   2.0000      -0.447801       -12.1853
  27   2.0000      -0.423749       -11.5308
  28   2.0000      -0.416509       -11.3338
  29   2.0000      -0.391770       -10.6606
  30   2.0000      -0.389191       -10.5904
  31   2.0000      -0.366913        -9.9842
  32   2.0000      -0.361529        -9.8377
  33   2.0000      -0.284448        -7.7402
  34   2.0000      -0.269383        -7.3303
  35   2.0000      -0.267813        -7.2875
  36   0.0000      -0.053072        -1.4442
  37   0.0000      -0.017971        -0.4890
  38   0.0000       0.045714         1.2439
  39   0.0000       0.080682         2.1955
  40   0.0000       0.104943         2.8556

MULLIKEN ATOMIC CHARGES
-----------------------
   0 C :   -0.141180
   1 C :   -0.197127
   2 C :    0.358402
   3 C :   -0.197200
   4 C :   -0.135288
   5 C :   -0.001575
   6 C :    0.091848
   7 O :   -0.257000
   8 C :   -0.350626
   9 H :    0.176136
  10 H :    0.176181
  11 H :    0.147502
  12 H :    0.126048
  13 H :    0.138151
  14 F :   -0.212347
  15 H :    0.137388
  16 H :    0.140687
Sum of atomic charges:    0.0000000

LOEWDIN ATOMIC CHARGES
----------------------
   0 C :   -0.094935
   1 C :   -0.158678
   2 C :    0.082517
   3 C :   -0.157769
   4 C :   -0.085234
   5 C :   -0.106568
   6 C :    0.078077
   7 O :   -0.189606
   8 C :   -0.371256
   9 H :    0.156740
  10 H :    0.156770
  11 H :    0.140393
  12 H :    0.147414
  13 H :    0.157595
  14 F :   -0.066116
  15 H :    0.157994
  16 H :    0.152662

  Mayer bond orders larger than 0.100000
B(  0-C ,  1-C ) :   1.3707 B(  0-C ,  5-C ) :   1.3608 B(  0-C , 16-H ) :   0.9452
B(  1-C ,  2-C ) :   1.3525 B(  1-C , 15-H ) :   0.9606 B(  2-C ,  3-C ) :   1.3370
B(  2-C , 14-F ) :   1.0421 B(  3-C ,  4-C ) :   1.3650 B(  3-C , 13-H ) :   0.9635
B(  4-C ,  5-C ) :   1.3565 B(  4-C , 12-H ) :   0.9562 B(  5-C ,  6-C ) :   0.9404
B(  6-C ,  7-O ) :   2.1050 B(  6-C ,  8-C ) :   1.1206 B(  8-C ,  9-H ) :   0.9131
B(  8-C , 10-H ) :   0.9130 B(  8-C , 11-H ) :   0.9336

Dispersion correction           -0.015327508
FINAL SINGLE POINT ENERGY      -483.250236460664

DIPOLE MOMENT
-------------

Method             : SCF
Type of density    : Electron Density
Multiplicity       :   1
Irrep              :   0
Energy             :  -483.2349089526836678 Eh
Relativity type    :
Basis              : AO
                                X                 Y                 Z
Electronic contribution:      9.818520303      -3.051221093      -0.001466639
Nuclear contribution   :     -9.527592082       4.276582154       0.003158717
                        -----------------------------------------
Total Dipole Moment    :      0.290928221       1.225361061       0.001692078
                        -----------------------------------------
Magnitude (a.u.)       :      1.259425196
Magnitude (Debye)      :      3.201204443

VIBRATIONAL FREQUENCIES
-----------------------

Scaling factor for frequencies =  1.000000000  (already applied!)

     0:       0.00 cm**-1
     1:       0.00 cm**-1
     2:       0.00 cm**-1
     3:       0.00 cm**-1
     4:       0.00 cm**-1
     5:       0.00 cm**-1
     6:      59.15 cm**-1
     7:     106.89 cm**-1
     8:     157.07 cm**-1
     9:     197.28 cm**-1
    10:     297.26 cm**-1
    11:     340.96 cm**-1
    12:     404.44 cm**-1
    13:     427.69 cm**-1
    14:     473.33 cm**-1
    15:     508.50 cm**-1
    16:     580.57 cm**-1
    17:     603.45 cm**-1
    18:     641.77 cm**-1
    19:     699.44 cm**-1
    20:     749.79 cm**-1
    21:     834.98 cm**-1
    22:     858.89 cm**-1
    23:     863.10 cm**-1
    24:     974.91 cm**-1
    25:     982.09 cm**-1
    26:    1007.45 cm**-1
    27:    1023.23 cm**-1
    28:    1046.26 cm**-1
    29:    1099.77 cm**-1
    30:    1106.42 cm**-1
    31:    1154.93 cm**-1
    32:    1283.88 cm**-1
    33:    1299.77 cm**-1
    34:    1307.84 cm**-1
    35:    1375.47 cm**-1
    36:    1408.30 cm**-1
    37:    1427.71 cm**-1
    38:    1435.54 cm**-1
    39:    1462.52 cm**-1
    40:    1561.49 cm**-1
    41:    1673.59 cm**-1
    42:    1689.90 cm**-1
    43:    1814.67 cm**-1
    44:    3046.24 cm**-1
    45:    3136.24 cm**-1
    46:    3173.16 cm**-1
    47:    3222.00 cm**-1
    48:    3224.71 cm**-1
    49:    3233.90 cm**-1
    50:    3236.66 cm**-1

IR SPECTRUM
-----------

 Mode   freq       eps      Int      T**2         TX        TY        TZ
       cm**-1   L/(mol*cm) km/mol    a.u.
----------------------------------------------------------------------------
  6:     59.15   0.000727    3.67  0.003834  (-0.000418 -0.000453  0.061918)
  7:    106.89   0.000357    1.81  0.001044  ( 0.000091 -0.000212  0.032305)
  8:    157.07   0.000148    0.75  0.000293  (-0.000342 -0.000016 -0.017119)
  9:    197.28   0.001530    7.73  0.002420  ( 0.045559 -0.018552 -0.000049)
 10:    297.26   0.000138    0.70  0.000145  ( 0.000249  0.000083  0.012032)
 11:    340.96   0.000446    2.26  0.000409  ( 0.008824  0.018184 -0.000009)
 12:    404.44   0.001173    5.93  0.000905  (-0.010395 -0.028231  0.000073)
 13:    427.69   0.000019    0.09  0.000014  ( 0.000176  0.000035  0.003692)
 14:    473.33   0.000361    1.82  0.000238  (-0.015229  0.002438 -0.000055)
 15:    508.50   0.001716    8.67  0.001053  (-0.000213  0.000238 -0.032451)
 16:    580.57   0.012823   64.80  0.006893  (-0.080673  0.019604 -0.000084)
 17:    603.45   0.004202   21.24  0.002173  ( 0.000162 -0.000008 -0.046616)
 18:    641.77   0.000040    0.20  0.000019  (-0.001225  0.004222 -0.000003)
 19:    699.44   0.000221    1.12  0.000099  ( 0.003199  0.009398  0.000105)
 20:    749.79   0.000247    1.25  0.000103  (-0.000210 -0.000065  0.010129)
 21:    834.98   0.001169    5.91  0.000437  (-0.000210  0.000047 -0.020898)
 22:    858.89   0.006571   33.21  0.002388  (-0.048822 -0.000163  0.001977)
 23:    863.10   0.019737   99.74  0.007136  ( 0.001028 -0.000138  0.084469)
 24:    974.91   0.008447   42.69  0.002704  (-0.048785  0.017996 -0.000010)
 25:    982.09   0.000058    0.29  0.000018  ( 0.000480 -0.000178  0.004245)
 26:   1007.45   0.000082    0.42  0.000025  (-0.000017 -0.000586  0.005014)
 27:   1023.23   0.002775   14.02  0.000846  (-0.028517  0.005734  0.000241)
 28:   1046.26   0.001367    6.91  0.000408  ( 0.000069 -0.000009  0.020196)
 29:   1099.77   0.001698    8.58  0.000482  (-0.004199 -0.021545  0.000015)
 30:   1106.42   0.005397   27.28  0.001522  ( 0.013582 -0.036576  0.000048)
 31:   1154.93   0.010737   54.26  0.002901  (-0.053853 -0.000975 -0.000075)
 32:   1283.88   0.000976    4.93  0.000237  ( 0.010184  0.011554  0.000009)
 33:   1299.77   0.024645  124.55  0.005917  (-0.076250 -0.010152  0.000004)
 34:   1307.84   0.063962  323.24  0.015262  (-0.123410  0.005629 -0.000068)
 35:   1375.47   0.043115  217.89  0.009782  (-0.082529  0.054505  0.000147)
 36:   1408.30   0.004014   20.29  0.000890  ( 0.029824  0.000148 -0.000032)
 37:   1427.71   0.006480   32.75  0.001416  ( 0.030625  0.021869  0.000342)
 38:   1435.54   0.003696   18.68  0.000803  ( 0.000354  0.000288 -0.028340)
 39:   1462.52   0.006864   34.69  0.001465  ( 0.034094 -0.017385 -0.000020)
 40:   1561.49   0.010475   52.94  0.002093  (-0.045377 -0.005865  0.000022)
 41:   1673.59   0.006852   34.63  0.001278  ( 0.029405 -0.020323  0.000021)
 42:   1689.90   0.050185  253.61  0.009267  (-0.095509 -0.012056 -0.000000)
 43:   1814.67   0.066694  337.05  0.011469  (-0.060261 -0.088531 -0.000131)
 44:   3046.24   0.000001    0.01  0.000000  (-0.000356 -0.000111 -0.000024)
 45:   3136.24   0.000165    0.83  0.000016  ( 0.000002 -0.000025 -0.004053)
 46:   3173.16   0.002004   10.13  0.000197  (-0.014019  0.000719 -0.000047)
 47:   3222.00   0.000151    0.76  0.000015  (-0.003804 -0.000352 -0.000013)
 48:   3224.71   0.000439    2.22  0.000043  ( 0.005336 -0.003747 -0.000020)
 49:   3233.90   0.000601    3.04  0.000058  ( 0.007271 -0.002267 -0.000024)
 50:   3236.66   0.000184    0.93  0.000018  ( 0.003880  0.001631  0.000016)

--------------------------
THERMOCHEMISTRY AT 298.15K
--------------------------

Temperature         ...   298.15 K
Pressure            ...     1.00 atm
Total Mass          ...   138.14 AMU
Quasi RRHO          ...     True
Cut-Off Frequency   ...     1.00 cm^-1

Throughout the following assumptions are being made:
  (1) The electronic state is orbitally nondegenerate
  (2) There are no thermally accessible electronically excited states
  (3) Hindered rotations indicated by low frequency modes are not
      treated as such but are treated as vibrations and this may
      cause some error
  (4) All equations used are the standard statistical mechanics
      equations for an ideal gas
  (5) All vibrations are strictly harmonic

freq.      59.15  E(vib)   ...       0.51
freq.     106.89  E(vib)   ...       0.45
freq.     157.07  E(vib)   ...       0.40
freq.     197.28  E(vib)   ...       0.35
freq.     297.26  E(vib)   ...       0.27
freq.     340.96  E(vib)   ...       0.23
freq.     404.44  E(vib)   ...       0.19
freq.     427.69  E(vib)   ...       0.18
freq.     473.33  E(vib)   ...       0.15
freq.     508.50  E(vib)   ...       0.14
freq.     580.57  E(vib)   ...       0.11
freq.     603.45  E(vib)   ...       0.10
freq.     641.77  E(vib)   ...       0.09
freq.     699.44  E(vib)   ...       0.07
freq.     749.79  E(vib)   ...       0.06
freq.     834.98  E(vib)   ...       0.04
freq.     858.89  E(vib)   ...       0.04
freq.     863.10  E(vib)   ...       0.04
freq.     974.91  E(vib)   ...       0.03
freq.     982.09  E(vib)   ...       0.02
freq.    1007.45  E(vib)   ...       0.02
freq.    1023.23  E(vib)   ...       0.02
freq.    1046.26  E(vib)   ...       0.02
freq.    1099.77  E(vib)   ...       0.02
freq.    1106.42  E(vib)   ...       0.02
freq.    1154.93  E(vib)   ...       0.01
freq.    1283.88  E(vib)   ...       0.01
freq.    1299.77  E(vib)   ...       0.01
freq.    1307.84  E(vib)   ...       0.01
freq.    1375.47  E(vib)   ...       0.01
freq.    1408.30  E(vib)   ...       0.00
freq.    1427.71  E(vib)   ...       0.00
freq.    1435.54  E(vib)   ...       0.00
freq.    1462.52  E(vib)   ...       0.00
freq.    1561.49  E(vib)   ...       0.00
freq.    1673.59  E(vib)   ...       0.00
freq.    1689.90  E(vib)   ...       0.00
freq.    1814.67  E(vib)   ...       0.00
freq.    3046.24  E(vib)   ...       0.00
freq.    3136.24  E(vib)   ...       0.00
freq.    3173.16  E(vib)   ...       0.00
freq.    3222.00  E(vib)   ...       0.00
freq.    3224.71  E(vib)   ...       0.00
freq.    3233.90  E(vib)   ...       0.00
freq.    3236.66  E(vib)   ...       0.00

------------
INNER ENERGY
------------

The inner energy is: U= E(el) + E(ZPE) + E(vib) + E(rot) + E(trans)
    E(el)   - is the total energy from the electronic structure calculation
              = E(kin-el) + E(nuc-el) + E(el-el) + E(nuc-nuc)
    E(ZPE)  - the the zero temperature vibrational energy from the frequency calculation
    E(vib)  - the the finite temperature correction to E(ZPE) due to population
              of excited vibrational states
    E(rot)  - is the rotational thermal energy
    E(trans)- is the translational thermal energy

Summary of contributions to the inner energy U:
Electronic energy                ...   -483.25023646 Eh
Zero point energy                ...      0.13034129 Eh      81.79 kcal/mol
Thermal vibrational correction   ...      0.00577571 Eh       3.62 kcal/mol
Thermal rotational correction    ...      0.00141627 Eh       0.89 kcal/mol
Thermal translational correction ...      0.00141627 Eh       0.89 kcal/mol
-----------------------------------------------------------------------
Total thermal energy                   -483.11128692 Eh

Summary of corrections to the electronic energy:
(perhaps to be used in another calculation)
Total thermal correction                  0.00860825 Eh       5.40 kcal/mol
Non-thermal (ZPE) correction              0.13034129 Eh      81.79 kcal/mol
-----------------------------------------------------------------------
Total correction                          0.13894954 Eh      87.19 kcal/mol

--------
ENTHALPY
--------

The enthalpy is H = U + kB*T
                kB is Boltzmann's constant
Total thermal energy              ...   -483.11128692 Eh
Thermal Enthalpy correction       ...      0.00094421 Eh       0.59 kcal/mol
-----------------------------------------------------------------------
Total Enthalpy                    ...   -483.11034271 Eh

Note: Only C1 symmetry has been detected, increase convergence thresholds
      if your molecule has a higher symmetry. Symmetry factor of 1.0 is
      used for the rotational entropy correction.

Note: Rotational entropy computed according to Herzberg
Infrared and Raman Spectra, Chapter V,1, Van Nostrand Reinhold, 1945
Point Group:  C1, Symmetry Number:   1
Rotational constants in cm-1:     0.122490     0.025856     0.021436

Vibrational entropy computed according to the QRRHO of S. Grimme
Chem.Eur.J. 2012 18 9955 using a reference frequency of 100.0 cm-1

-------
ENTROPY
-------

The entropy contributions are T*S = T*(S(el)+S(vib)+S(rot)+S(trans))
     S(el)   - electronic entropy
     S(vib)  - vibrational entropy
     S(rot)  - rotational entropy
     S(trans)- translational entropy
The entropies will be listed as multiplied by the temperature to get
units of energy

Electronic entropy                ...      0.00000000 Eh      0.00 kcal/mol
Vibrational entropy               ...      0.00966367 Eh      6.06 kcal/mol
Rotational entropy                ...      0.01404175 Eh      8.81 kcal/mol
Translational entropy             ...      0.01932885 Eh     12.13 kcal/mol
-----------------------------------------------------------------------
Final entropy term                ...      0.04303426 Eh     27.00 kcal/mol

In case the symmetry of your molecule has not been determined correctly
or in case you have a reason to use a different symmetry number we print
out the resulting rotational entropy values for sn=1,12:

 non-linear molecules -----------------------------------
|  sn= 1 | S(rot)=       0.01404175 Eh      8.81 kcal/mol|
|  sn= 2 | S(rot)=       0.01338729 Eh      8.40 kcal/mol|
|  sn= 3 | S(rot)=       0.01300446 Eh      8.16 kcal/mol|
|  sn= 4 | S(rot)=       0.01273283 Eh      7.99 kcal/mol|
|  sn= 5 | S(rot)=       0.01252215 Eh      7.86 kcal/mol|
|  sn= 6 | S(rot)=       0.01235000 Eh      7.75 kcal/mol|
|  sn= 7 | S(rot)=       0.01220446 Eh      7.66 kcal/mol|
|  sn= 8 | S(rot)=       0.01207838 Eh      7.58 kcal/mol|
|  sn= 9 | S(rot)=       0.01196717 Eh      7.51 kcal/mol|
|  sn=10 | S(rot)=       0.01186769 Eh      7.45 kcal/mol|
|  sn=11 | S(rot)=       0.01177770 Eh      7.39 kcal/mol|
|  sn=12 | S(rot)=       0.01169555 Eh      7.34 kcal/mol|
 linear molecules ---------------------------------------
|  Dinfh | S(rot)=       0.00895399 Eh      5.62 kcal/mol|
|  Cinfv | S(rot)=       0.00960844 Eh      6.03 kcal/mol|

                             ****ORCA TERMINATED NORMALLY****
TOTAL RUN TIME: 0 days 0 hours 5 minutes 11 seconds 321 msec
