                         Program Version 6.0.0  -   RELEASE  -
|  1> !TPSSh aug-cc-pVTZ d3 TightSCF SlowConv RIJCOSX defgrid2
|  2>
|  3> %pal
|  4> nprocs 4
|  5> end
|  6>
|  7> %scf
|  8> MaxIter 1500
|  9> end
| 10>
| 11> %maxcore 3000
| 12>
| 13> !CPCM
| 14> %cpcm smd true
| 15> SMDsolvent "MeCN"
| 16> surfacetype gepol_ses
| 17> rsolv 2.19
| 18> end
| 19>
| 20> * xyz 0 1
| 21> C           0.86930262577353     -1.20261880029345      0.00017105333715
| 22> C           1.23795362702926      0.14976029336823      0.00011888618076
| 23> C           0.20861669065532      1.10178711313028      0.00004997159606
| 24> C          -1.14266539481067      0.75277814049696     -0.00001496332606
| 25> C          -1.49510132454858     -0.61091836423424      0.00001993066330
| 26> C          -0.47134803669840     -1.56560486246111      0.00011663608289
| 27> H          -0.73825756953350     -2.62759517616832      0.00016986000597
| 28> C          -2.93561352812274     -1.03199819846802     -0.00003268925957
| 29> H          -3.03042597379354     -2.12984128685189      0.00005376751285
| 30> H          -3.47239583982485     -0.64683793793607     -0.88649052066934
| 31> H          -3.47250072897996     -0.64668878799144      0.88629702354134
| 32> C          -2.20261220725801      1.81656948866912     -0.00009254079027
| 33> H          -2.85825633400454      1.73802365829102      0.88648022833246
| 34> H          -2.85834169985167      1.73782693594634     -0.88658224699833
| 35> H          -1.75673523006564      2.82424393630291     -0.00022124376864
| 36> H           0.47747434540426      2.16407970597621      0.00002545328680
| 37> C           2.63224685704945      0.60848489545892      0.00012709034736
| 38> C           3.73948848691454     -0.14591897511127     -0.00036178438147
| 39> H           3.70645882304827     -1.24152951701146     -0.00086807767724
| 40> H           4.73244049250843      0.31559854639130     -0.00029313441000
| 41> H           2.75218557093434      1.69979268676539      0.00055539249904
| 42> H           1.63531784817470     -1.98284589426942      0.00029190789491
| 43> *
| 44>
| 45>                          ****END OF INPUT****

CARTESIAN COORDINATES (ANGSTROEM)
---------------------------------
  C      0.869303   -1.202619    0.000171
  C      1.237954    0.149760    0.000119
  C      0.208617    1.101787    0.000050
  C     -1.142665    0.752778   -0.000015
  C     -1.495101   -0.610918    0.000020
  C     -0.471348   -1.565605    0.000117
  H     -0.738258   -2.627595    0.000170
  C     -2.935614   -1.031998   -0.000033
  H     -3.030426   -2.129841    0.000054
  H     -3.472396   -0.646838   -0.886491
  H     -3.472501   -0.646689    0.886297
  C     -2.202612    1.816569   -0.000093
  H     -2.858256    1.738024    0.886480
  H     -2.858342    1.737827   -0.886582
  H     -1.756735    2.824244   -0.000221
  H      0.477474    2.164080    0.000025
  C      2.632247    0.608485    0.000127
  C      3.739488   -0.145919   -0.000362
  H      3.706459   -1.241530   -0.000868
  H      4.732440    0.315599   -0.000293
  H      2.752186    1.699793    0.000555
  H      1.635318   -1.982846    0.000292

 Total Charge           Charge          ....    0
 Multiplicity           Mult            ....    1
 Number of Electrons    NEL             ....   72
 Basis Dimension        Dim             ....  736

ORBITAL ENERGIES
----------------

  NO   OCC          E(Eh)            E(eV)
   0   2.0000     -10.122256      -275.4406
   1   2.0000     -10.121083      -275.4087
   2   2.0000     -10.120588      -275.3952
   3   2.0000     -10.119945      -275.3777
   4   2.0000     -10.112800      -275.1833
   5   2.0000     -10.112168      -275.1661
   6   2.0000     -10.112015      -275.1619
   7   2.0000     -10.108442      -275.0647
   8   2.0000     -10.106462      -275.0108
   9   2.0000     -10.106280      -275.0058
  10   2.0000      -0.842839       -22.9348
  11   2.0000      -0.780347       -21.2343
  12   2.0000      -0.743003       -20.2181
  13   2.0000      -0.725147       -19.7323
  14   2.0000      -0.675116       -18.3708
  15   2.0000      -0.647511       -17.6197
  16   2.0000      -0.582329       -15.8460
  17   2.0000      -0.575864       -15.6701
  18   2.0000      -0.520708       -14.1692
  19   2.0000      -0.476505       -12.9664
  20   2.0000      -0.458498       -12.4764
  21   2.0000      -0.429538       -11.6883
  22   2.0000      -0.413153       -11.2425
  23   2.0000      -0.409471       -11.1423
  24   2.0000      -0.393121       -10.6974
  25   2.0000      -0.386426       -10.5152
  26   2.0000      -0.375416       -10.2156
  27   2.0000      -0.361845        -9.8463
  28   2.0000      -0.359604        -9.7853
  29   2.0000      -0.350644        -9.5415
  30   2.0000      -0.340050        -9.2532
  31   2.0000      -0.315703        -8.5907
  32   2.0000      -0.310668        -8.4537
  33   2.0000      -0.282304        -7.6819
  34   2.0000      -0.238281        -6.4840
  35   2.0000      -0.212114        -5.7719
  36   0.0000      -0.052670        -1.4332
  37   0.0000      -0.020663        -0.5623
  38   0.0000      -0.003476        -0.0946
  39   0.0000       0.005832         0.1587
  40   0.0000       0.010038         0.2732

MULLIKEN ATOMIC CHARGES
-----------------------
   0 C :   -0.186715
   1 C :    1.533009
   2 C :   -0.802664
   3 C :    0.288912
   4 C :    0.471070
   5 C :   -0.900235
   6 H :    0.051908
   7 C :   -0.281611
   8 H :   -0.090830
   9 H :    0.145893
  10 H :    0.145497
  11 C :   -0.261842
  12 H :    0.149909
  13 H :    0.149265
  14 H :   -0.091576
  15 H :   -0.283585
  16 C :    0.167494
  17 C :   -0.717378
  18 H :    0.249684
  19 H :    0.033049
  20 H :    0.097173
  21 H :    0.133574
Sum of atomic charges:   -0.0000000

LOEWDIN ATOMIC CHARGES
----------------------
   0 C :    0.204689
   1 C :   -0.154761
   2 C :    0.220221
   3 C :   -0.107599
   4 C :   -0.112397
   5 C :    0.216312
   6 H :   -0.167652
   7 C :    0.571804
   8 H :   -0.166344
   9 H :   -0.154432
  10 H :   -0.154416
  11 C :    0.573256
  12 H :   -0.154227
  13 H :   -0.154235
  14 H :   -0.165966
  15 H :   -0.167388
  16 C :    0.159073
  17 C :    0.517745
  18 H :   -0.219980
  19 H :   -0.214379
  20 H :   -0.188581
  21 H :   -0.180744

  Mayer bond orders larger than 0.100000
B(  0-C ,  1-C ) :   0.6009 B(  0-C ,  2-C ) :  -0.6452 B(  0-C ,  3-C ) :  -0.1246
B(  0-C ,  5-C ) :   1.0177 B(  0-C , 16-C ) :   0.2191 B(  0-C , 17-C ) :   0.1241
B(  0-C , 19-H ) :  -0.1020 B(  0-C , 21-H ) :   1.1896 B(  1-C ,  3-C ) :   0.2591
B(  1-C ,  4-C ) :  -0.2720 B(  1-C ,  7-C ) :   0.1226 B(  1-C , 15-H ) :  -0.2821
B(  1-C , 16-C ) :   0.2098 B(  1-C , 17-C ) :  -0.2206 B(  1-C , 20-H ) :   0.1229
B(  1-C , 21-H ) :   0.1070 B(  2-C ,  3-C ) :   0.7862 B(  2-C ,  4-C ) :  -0.1651
B(  2-C ,  5-C ) :   0.2030 B(  2-C ,  6-H ) :   0.1019 B(  2-C , 11-C ) :  -0.2192
B(  2-C , 15-H ) :   1.9003 B(  2-C , 16-C ) :   0.1167 B(  2-C , 20-H ) :  -0.1707
B(  3-C ,  4-C ) :   1.3827 B(  3-C ,  5-C ) :   0.2037 B(  3-C ,  7-C ) :   0.1646
B(  3-C , 11-C ) :   0.3786 B(  3-C , 20-H ) :   0.1295 B(  4-C ,  5-C ) :   0.8915
B(  4-C ,  6-H ) :   0.2036 B(  4-C ,  7-C ) :   0.5620 B(  4-C , 11-C ) :   0.3964
B(  4-C , 16-C ) :   0.1176 B(  5-C ,  6-H ) :   1.0234 B(  5-C ,  7-C ) :  -0.1725
B(  5-C , 17-C ) :  -0.1176 B(  5-C , 21-H ) :  -0.1406 B(  7-C ,  8-H ) :   1.0336
B(  7-C ,  9-H ) :   1.0009 B(  7-C , 10-H ) :   1.0017 B( 11-C , 12-H ) :   0.9900
B( 11-C , 13-H ) :   0.9898 B( 11-C , 14-H ) :   1.0184 B( 15-H , 16-C ) :  -0.1121
B( 16-C , 17-C ) :   1.1500 B( 16-C , 20-H ) :   0.9505 B( 17-C , 18-H ) :   1.0126
B( 17-C , 19-H ) :   1.0553 B( 17-C , 20-H ) :  -0.1517

Dispersion correction           -0.026888742
FINAL SINGLE POINT ENERGY      -388.481976495866

DIPOLE MOMENT
-------------

Method             : SCF
Type of density    : Electron Density
Multiplicity       :   1
Irrep              :   0
Energy             :  -388.4550877534620668 Eh
Relativity type    :
Basis              : AO
                                X                 Y                 Z
Electronic contribution:      4.027965708      -1.072725562       0.000636234
Nuclear contribution   :     -4.612312787       1.157001157      -0.000599620
                        -----------------------------------------
Total Dipole Moment    :     -0.584347079       0.084275594       0.000036615
                        -----------------------------------------
Magnitude (a.u.)       :      0.590392992
Magnitude (Debye)      :      1.500659728

Rotational constants in cm-1:             0.097441             0.028572             0.022278
Rotational constants in MHz :          2921.210321           856.555703           667.890460

                             ****ORCA TERMINATED NORMALLY****
TOTAL RUN TIME: 0 days 0 hours 7 minutes 55 seconds 542 msec
