                         Program Version 6.0.0  -   RELEASE  -
|  1> !PBE0 def2-SV(p) Opt Freq d3 TightSCF SlowConv RIJCOSX defgrid2
|  2>
|  3> %pal
|  4> nprocs 4
|  5> end
|  6>
|  7> %scf
|  8> MaxIter 1500
|  9> end
| 10>
| 11> %maxcore 3000
| 12>
| 13>
| 14>
| 15> * xyz 1 2
| 16> C     0.4202807   -0.5427922   -0.0559640
| 17> C     1.4835633   -1.4151000    0.2269969
| 18> C     2.7805435   -0.9602517    0.2591069
| 19> C     3.0660186    0.3924292    0.0188422
| 20> C     2.0461852    1.2788135   -0.2262018
| 21> C     0.7053606    0.8565025   -0.2004830
| 22> C    -0.3227311    1.8493785   -0.2425305
| 23> C    -1.5599046    1.7431801    0.3037843
| 24> C    -2.6019994    2.7734602    0.1839915
| 25> H    -3.5283194    2.3258451   -0.1819785
| 26> H    -2.8402672    3.1686732    1.1744796
| 27> H    -2.3071574    3.5884483   -0.4716105
| 28> H    -1.8081597    0.8836845    0.9140193
| 29> H    -0.0391727    2.7983144   -0.6838372
| 30> H     2.2621586    2.3244831   -0.3823073
| 31> H     4.0889184    0.7345977    0.0412591
| 32> H     3.5897333   -1.6519964    0.4354050
| 33> H     1.2874439   -2.4686909    0.3442209
| 34> C    -0.8975520   -1.0425387   -0.3224839
| 35> C    -1.4119316   -2.2009401    0.1639433
| 36> C    -2.7724951   -2.6723401   -0.1272077
| 37> H    -3.3000869   -2.0203895   -0.8184955
| 38> H    -2.7250340   -3.6831304   -0.5394310
| 39> H    -3.3433157   -2.7656220    0.7998151
| 40> H    -0.8315314   -2.8124361    0.8416669
| 41> H    -1.5148019   -0.4420684   -0.9786274
| 42> *
| 43>
| 44>                          ****END OF INPUT****
 Total Charge           Charge          ....    1
 Multiplicity           Mult            ....    2
 Number of Electrons    NEL             ....   85
Dispersion correction           -0.025027946
FINAL SINGLE POINT ENERGY      -464.498953190674
Dispersion correction             ... done (  0.1 sec)
Dispersion correction           -0.024739189
FINAL SINGLE POINT ENERGY      -464.502163119420
Dispersion correction             ... done (  0.1 sec)
Dispersion correction           -0.024777586
FINAL SINGLE POINT ENERGY      -464.502195422455
Dispersion correction             ... done (  0.0 sec)
FINAL SINGLE POINT ENERGY      -464.502464243484
FINAL SINGLE POINT ENERGY      -464.502502588370
FINAL SINGLE POINT ENERGY      -464.502520714180
Dispersion correction             ... done (  0.1 sec)
Dispersion correction           -0.024694964
FINAL SINGLE POINT ENERGY      -464.502523194115
Dispersion correction             ... done (  0.0 sec)
Dispersion correction           -0.024696005
FINAL SINGLE POINT ENERGY      -464.502524916643
Dispersion correction             ... done (  0.0 sec)
                    ***********************HURRAY********************

CARTESIAN COORDINATES (ANGSTROEM)
---------------------------------
  C      0.390272   -0.553950   -0.011473
  C      1.465384   -1.412015    0.328431
  C      2.762234   -0.951815    0.330625
  C      3.048430    0.393805   -0.010621
  C      2.025686    1.269316   -0.302662
  C      0.676788    0.853150   -0.228622
  C     -0.339268    1.862203   -0.301177
  C     -1.564893    1.825152    0.304245
  C     -2.566908    2.908966    0.232314
  H     -3.533553    2.512935   -0.134796
  H     -2.776052    3.302476    1.246061
  H     -2.251293    3.738875   -0.418699
  H     -1.813996    0.967108    0.942617
  H     -0.046718    2.798507   -0.794199
  H      2.244756    2.317158   -0.524734
  H      4.085684    0.739932   -0.022143
  H      3.583110   -1.637502    0.557787
  H      1.275335   -2.472146    0.508355
  C     -0.920892   -1.067598   -0.276014
  C     -1.404018   -2.285268    0.134936
  C     -2.749575   -2.798845   -0.184673
  H     -3.335834   -2.107784   -0.809968
  H     -2.665573   -3.773171   -0.705810
  H     -3.310168   -3.016067    0.745505
  H     -0.772349   -2.928376    0.761428
  H     -1.580845   -0.445533   -0.890339

 Multiplicity           Mult            ....    2
 Number of Electrons    NEL             ....   85
 Basis Dimension        Dim             ....  196

ORBITAL ENERGIES
----------------
                 SPIN UP ORBITALS
  NO   OCC          E(Eh)            E(eV)
   0   1.0000     -10.437451      -284.0175
   1   1.0000     -10.434813      -283.9457
   2   1.0000     -10.430004      -283.8148
   3   1.0000     -10.423328      -283.6332
   4   1.0000     -10.414289      -283.3872
   5   1.0000     -10.407610      -283.2055
   6   1.0000     -10.404817      -283.1295
   7   1.0000     -10.403917      -283.1050
   8   1.0000     -10.400579      -283.0141
   9   1.0000     -10.397137      -282.9205
  10   1.0000     -10.371495      -282.2227
  11   1.0000     -10.366630      -282.0904
  12   1.0000      -1.061145       -28.8752
  13   1.0000      -0.994872       -27.0718
  14   1.0000      -0.990610       -26.9559
  15   1.0000      -0.936133       -25.4735
  16   1.0000      -0.934488       -25.4287
  17   1.0000      -0.869500       -23.6603
  18   1.0000      -0.847645       -23.0656
  19   1.0000      -0.797876       -21.7113
  20   1.0000      -0.778190       -21.1756
  21   1.0000      -0.733480       -19.9590
  22   1.0000      -0.729275       -19.8446
  23   1.0000      -0.691114       -18.8062
  24   1.0000      -0.655998       -17.8506
  25   1.0000      -0.650423       -17.6989
  26   1.0000      -0.622399       -16.9363
  27   1.0000      -0.608308       -16.5529
  28   1.0000      -0.606185       -16.4951
  29   1.0000      -0.584143       -15.8953
  30   1.0000      -0.580867       -15.8062
  31   1.0000      -0.574703       -15.6385
  32   1.0000      -0.560790       -15.2599
  33   1.0000      -0.557636       -15.1741
  34   1.0000      -0.550221       -14.9723
  35   1.0000      -0.533611       -14.5203
  36   1.0000      -0.525374       -14.2961
  37   1.0000      -0.521779       -14.1983
  38   1.0000      -0.513127       -13.9629
  39   1.0000      -0.478444       -13.0191
  40   1.0000      -0.473241       -12.8775
  41   1.0000      -0.414025       -11.2662
  42   1.0000      -0.395791       -10.7700
  43   0.0000      -0.224415        -6.1066
  44   0.0000      -0.185793        -5.0557
  45   0.0000      -0.129853        -3.5335
  46   0.0000      -0.110278        -3.0008
  47   0.0000      -0.061085        -1.6622

                 SPIN DOWN ORBITALS
  NO   OCC          E(Eh)            E(eV)
   0   1.0000     -10.434455      -283.9360
   1   1.0000     -10.432163      -283.8736
   2   1.0000     -10.424359      -283.6612
   3   1.0000     -10.419192      -283.5206
   4   1.0000     -10.414712      -283.3987
   5   1.0000     -10.407746      -283.2092
   6   1.0000     -10.403257      -283.0870
   7   1.0000     -10.402641      -283.0702
   8   1.0000     -10.401312      -283.0341
   9   1.0000     -10.398028      -282.9447
  10   1.0000     -10.371745      -282.2295
  11   1.0000     -10.366820      -282.0955
  12   1.0000      -1.055306       -28.7163
  13   1.0000      -0.987572       -26.8732
  14   1.0000      -0.984513       -26.7900
  15   1.0000      -0.931371       -25.3439
  16   1.0000      -0.928429       -25.2638
  17   1.0000      -0.868708       -23.6387
  18   1.0000      -0.843448       -22.9514
  19   1.0000      -0.793499       -21.5922
  20   1.0000      -0.773842       -21.0573
  21   1.0000      -0.728796       -19.8316
  22   1.0000      -0.726159       -19.7598
  23   1.0000      -0.688957       -18.7475
  24   1.0000      -0.654104       -17.7991
  25   1.0000      -0.648195       -17.6383
  26   1.0000      -0.619850       -16.8670
  27   1.0000      -0.606408       -16.5012
  28   1.0000      -0.602487       -16.3945
  29   1.0000      -0.581493       -15.8232
  30   1.0000      -0.569698       -15.5023
  31   1.0000      -0.566380       -15.4120
  32   1.0000      -0.558628       -15.2010
  33   1.0000      -0.548201       -14.9173
  34   1.0000      -0.545634       -14.8474
  35   1.0000      -0.532172       -14.4811
  36   1.0000      -0.524368       -14.2688
  37   1.0000      -0.520118       -14.1531
  38   1.0000      -0.511079       -13.9072
  39   1.0000      -0.467240       -12.7142
  40   1.0000      -0.456365       -12.4183
  41   1.0000      -0.401749       -10.9322
  42   0.0000      -0.319167        -8.6850
  43   0.0000      -0.198408        -5.3989
  44   0.0000      -0.175697        -4.7810
  45   0.0000      -0.114004        -3.1022
  46   0.0000      -0.095824        -2.6075

MULLIKEN ATOMIC CHARGES AND SPIN POPULATIONS
--------------------------------------------
   0 C :    0.091833    0.197620
   1 C :   -0.121887   -0.070796
   2 C :   -0.050341    0.088332
   3 C :   -0.046886    0.109771
   4 C :   -0.112954   -0.076036
   5 C :    0.082976    0.173154
   6 C :   -0.117425   -0.019234
   7 C :   -0.150511    0.272770
   8 C :   -0.331420   -0.024507
   9 H :    0.184228    0.017338
  10 H :    0.192336    0.017431
  11 H :    0.174039    0.000226
  12 H :    0.176867   -0.013373
  13 H :    0.153600    0.004615
  14 H :    0.140296    0.002223
  15 H :    0.158946   -0.005237
  16 H :    0.155642   -0.004460
  17 H :    0.133433    0.002161
  18 C :   -0.169726   -0.046596
  19 C :   -0.104050    0.376047
  20 C :   -0.335255   -0.032770
  21 H :    0.168818    0.000252
  22 H :    0.197071    0.024774
  23 H :    0.192461    0.021787
  24 H :    0.171338   -0.017982
  25 H :    0.166571    0.002491
Sum of atomic charges         :    1.0000000

LOEWDIN ATOMIC CHARGES AND SPIN POPULATIONS
-------------------------------------------
   0 C :    0.023667    0.162778
   1 C :   -0.096729   -0.034105
   2 C :   -0.065217    0.074454
   3 C :   -0.057751    0.090169
   4 C :   -0.095986   -0.039536
   5 C :    0.028120    0.147883
   6 C :   -0.103345    0.010344
   7 C :   -0.037647    0.225835
   8 C :   -0.336718   -0.001740
   9 H :    0.164257    0.015112
  10 H :    0.167742    0.015126
  11 H :    0.148285    0.000167
  12 H :    0.147436   -0.006912
  13 H :    0.156974    0.003702
  14 H :    0.156069    0.000930
  15 H :    0.161354   -0.002487
  16 H :    0.160388   -0.002167
  17 H :    0.150470    0.000955
  18 C :   -0.107652   -0.004471
  19 C :   -0.014816    0.312721
  20 C :   -0.336917   -0.001894
  21 H :    0.145637    0.000184
  22 H :    0.171770    0.021595
  23 H :    0.168518    0.019144
  24 H :    0.149634   -0.008941
  25 H :    0.152457    0.001154

  Mayer bond orders larger than 0.100000
B(  0-C ,  1-C ) :   1.2896 B(  0-C ,  5-C ) :   1.1670 B(  0-C , 18-C ) :   1.2444
B(  1-C ,  2-C ) :   1.5020 B(  1-C , 17-H ) :   0.9424 B(  2-C ,  3-C ) :   1.2396
B(  2-C , 16-H ) :   0.9499 B(  3-C ,  4-C ) :   1.4743 B(  3-C , 15-H ) :   0.9509
B(  4-C ,  5-C ) :   1.2858 B(  4-C , 14-H ) :   0.9554 B(  5-C ,  6-C ) :   1.2458
B(  6-C ,  7-C ) :   1.6306 B(  6-C , 13-H ) :   0.9145 B(  7-C ,  8-C ) :   1.1181
B(  7-C , 12-H ) :   0.9114 B(  8-C ,  9-H ) :   0.9107 B(  8-C , 10-H ) :   0.9074
B(  8-C , 11-H ) :   0.9452 B( 18-C , 19-C ) :   1.6033 B( 18-C , 25-H ) :   0.9132
B( 19-C , 20-C ) :   1.1258 B( 19-C , 24-H ) :   0.9092 B( 20-C , 21-H ) :   0.9458
B( 20-C , 22-H ) :   0.9032 B( 20-C , 23-H ) :   0.9057

Dispersion correction           -0.024695972
FINAL SINGLE POINT ENERGY      -464.502525380606

DIPOLE MOMENT
-------------

Method             : SCF
Type of density    : Electron Density
Multiplicity       :   2
Irrep              :   0
Energy             :  -464.4778294083725996 Eh
Relativity type    :
Basis              : AO
                                X                 Y                 Z
Electronic contribution:      9.583514011      -0.188729012      -0.222089031
Nuclear contribution   :    -10.132740029      -0.046037469       0.378723665
                        -----------------------------------------
Total Dipole Moment    :     -0.549226018      -0.234766481       0.156634634
                        -----------------------------------------
Magnitude (a.u.)       :      0.617494071
Magnitude (Debye)      :      1.569545195

VIBRATIONAL FREQUENCIES
-----------------------

Scaling factor for frequencies =  1.000000000  (already applied!)

     0:       0.00 cm**-1
     1:       0.00 cm**-1
     2:       0.00 cm**-1
     3:       0.00 cm**-1
     4:       0.00 cm**-1
     5:       0.00 cm**-1
     6:      63.86 cm**-1
     7:      84.08 cm**-1
     8:     107.83 cm**-1
     9:     128.09 cm**-1
    10:     150.01 cm**-1
    11:     162.88 cm**-1
    12:     192.23 cm**-1
    13:     221.78 cm**-1
    14:     261.61 cm**-1
    15:     304.09 cm**-1
    16:     326.06 cm**-1
    17:     350.57 cm**-1
    18:     400.57 cm**-1
    19:     478.07 cm**-1
    20:     502.06 cm**-1
    21:     506.95 cm**-1
    22:     592.47 cm**-1
    23:     625.95 cm**-1
    24:     745.16 cm**-1
    25:     773.50 cm**-1
    26:     812.89 cm**-1
    27:     834.52 cm**-1
    28:     839.52 cm**-1
    29:     870.17 cm**-1
    30:     902.84 cm**-1
    31:     951.61 cm**-1
    32:     958.59 cm**-1
    33:     975.10 cm**-1
    34:     980.56 cm**-1
    35:    1006.19 cm**-1
    36:    1036.56 cm**-1
    37:    1038.63 cm**-1
    38:    1045.16 cm**-1
    39:    1062.62 cm**-1
    40:    1124.83 cm**-1
    41:    1157.06 cm**-1
    42:    1171.57 cm**-1
    43:    1190.93 cm**-1
    44:    1233.15 cm**-1
    45:    1255.24 cm**-1
    46:    1299.92 cm**-1
    47:    1311.39 cm**-1
    48:    1318.20 cm**-1
    49:    1354.06 cm**-1
    50:    1362.17 cm**-1
    51:    1384.10 cm**-1
    52:    1388.84 cm**-1
    53:    1426.73 cm**-1
    54:    1438.28 cm**-1
    55:    1441.63 cm**-1
    56:    1457.12 cm**-1
    57:    1469.33 cm**-1
    58:    1495.16 cm**-1
    59:    1515.10 cm**-1
    60:    1575.77 cm**-1
    61:    1606.72 cm**-1
    62:    1662.79 cm**-1
    63:    1670.35 cm**-1
    64:    3019.03 cm**-1
    65:    3023.33 cm**-1
    66:    3088.84 cm**-1
    67:    3094.36 cm**-1
    68:    3159.13 cm**-1
    69:    3159.94 cm**-1
    70:    3170.25 cm**-1
    71:    3180.20 cm**-1
    72:    3184.33 cm**-1
    73:    3195.79 cm**-1
    74:    3217.40 cm**-1
    75:    3224.64 cm**-1
    76:    3233.87 cm**-1
    77:    3240.56 cm**-1

IR SPECTRUM
-----------

 Mode   freq       eps      Int      T**2         TX        TY        TZ
       cm**-1   L/(mol*cm) km/mol    a.u.
----------------------------------------------------------------------------
  6:     63.86   0.000198    1.00  0.000968  ( 0.014034 -0.027060 -0.006195)
  7:     84.08   0.000066    0.33  0.000245  ( 0.003870 -0.008272 -0.012703)
  8:    107.83   0.000709    3.58  0.002051  ( 0.006037  0.021316  0.039502)
  9:    128.09   0.000278    1.40  0.000676  (-0.004670  0.025540 -0.001541)
 10:    150.01   0.000048    0.24  0.000100  ( 0.003144  0.004645  0.008300)
 11:    162.88   0.000158    0.80  0.000303  ( 0.001032 -0.011310 -0.013183)
 12:    192.23   0.000595    3.01  0.000966  (-0.011036 -0.028276  0.006658)
 13:    221.78   0.000628    3.17  0.000883  ( 0.000831 -0.027612 -0.010964)
 14:    261.61   0.001076    5.44  0.001283  ( 0.004664 -0.035515  0.000485)
 15:    304.09   0.002702   13.66  0.002773  ( 0.001845 -0.051115 -0.012539)
 16:    326.06   0.000443    2.24  0.000424  (-0.001461  0.019497 -0.006484)
 17:    350.57   0.000045    0.23  0.000040  (-0.003109 -0.004533 -0.003203)
 18:    400.57   0.000126    0.63  0.000098  (-0.005896 -0.007627 -0.002224)
 19:    478.07   0.000819    4.14  0.000534  (-0.007566 -0.012521  0.017897)
 20:    502.06   0.000205    1.04  0.000127  ( 0.002659 -0.000749  0.010941)
 21:    506.95   0.000396    2.00  0.000244  ( 0.004893 -0.001656 -0.014740)
 22:    592.47   0.005857   29.60  0.003085  (-0.008439  0.054723 -0.004363)
 23:    625.95   0.001021    5.16  0.000509  ( 0.020542  0.008247  0.004375)
 24:    745.16   0.001171    5.92  0.000490  ( 0.006074 -0.017637  0.011930)
 25:    773.50   0.009415   47.58  0.003798  (-0.011711  0.006125  0.060197)
 26:    812.89   0.002891   14.61  0.001110  ( 0.033007  0.004398  0.001046)
 27:    834.52   0.000531    2.69  0.000199  ( 0.011163 -0.008297  0.002297)
 28:    839.52   0.001114    5.63  0.000414  ( 0.009951 -0.011635 -0.013409)
 29:    870.17   0.001101    5.56  0.000395  (-0.002602 -0.019671 -0.001060)
 30:    902.84   0.000701    3.54  0.000242  ( 0.013603 -0.006640  0.003607)
 31:    951.61   0.004070   20.57  0.001335  ( 0.027781  0.019372 -0.013697)
 32:    958.59   0.003056   15.44  0.000995  (-0.000728 -0.031533 -0.000035)
 33:    975.10   0.014596   73.76  0.004671  ( 0.013178 -0.048038 -0.046795)
 34:    980.56   0.005288   26.72  0.001683  ( 0.018964 -0.036337  0.001724)
 35:   1006.19   0.002177   11.00  0.000675  (-0.007048  0.013755  0.020886)
 36:   1036.56   0.000431    2.18  0.000130  ( 0.000817  0.008145  0.007920)
 37:   1038.63   0.000067    0.34  0.000020  ( 0.002076 -0.003905 -0.000760)
 38:   1045.16   0.000283    1.43  0.000085  (-0.004926 -0.001717 -0.007574)
 39:   1062.62   0.000668    3.38  0.000196  ( 0.013837  0.001337 -0.001725)
 40:   1124.83   0.001206    6.09  0.000334  ( 0.004675  0.017618  0.001479)
 41:   1157.06   0.000375    1.89  0.000101  ( 0.009306  0.003797  0.000049)
 42:   1171.57   0.005859   29.61  0.001561  (-0.009309  0.038347 -0.001839)
 43:   1190.93   0.002610   13.19  0.000684  (-0.009033 -0.024533  0.000675)
 44:   1233.15   0.038054  192.31  0.009630  ( 0.014386  0.097072  0.000360)
 45:   1255.24   0.000045    0.23  0.000011  ( 0.002126 -0.000444  0.002544)
 46:   1299.92   0.047720  241.16  0.011456  (-0.002790 -0.106817 -0.006189)
 47:   1311.39   0.004687   23.69  0.001115  ( 0.030618 -0.011729 -0.006348)
 48:   1318.20   0.001937    9.79  0.000459  ( 0.020312  0.001816 -0.006540)
 49:   1354.06   0.002772   14.01  0.000639  ( 0.022422  0.008486 -0.008010)
 50:   1362.17   0.004560   23.05  0.001045  (-0.010914  0.030423  0.000160)
 51:   1384.10   0.005566   28.13  0.001255  ( 0.028288  0.021321  0.000275)
 52:   1388.84   0.007351   37.15  0.001652  (-0.037404  0.014521  0.006463)
 53:   1426.73   0.022114  111.75  0.004837  ( 0.056533  0.040487 -0.001279)
 54:   1438.28   0.001966    9.94  0.000427  ( 0.003834 -0.003667 -0.019961)
 55:   1441.63   0.005014   25.34  0.001085  (-0.005393 -0.018522 -0.026707)
 56:   1457.12   0.009039   45.68  0.001936  (-0.032508  0.025143  0.015713)
 57:   1469.33   0.013809   69.78  0.002933  (-0.016482  0.049789 -0.013498)
 58:   1495.16   0.018418   93.08  0.003844  ( 0.008260 -0.061006 -0.007359)
 59:   1515.10   0.007751   39.17  0.001596  ( 0.037154 -0.014697 -0.000266)
 60:   1575.77   0.091228  461.03  0.018067  ( 0.024799  0.131111  0.016173)
 61:   1606.72   0.052548  265.56  0.010206  ( 0.043608 -0.091003 -0.004786)
 62:   1662.79   0.015429   77.97  0.002896  ( 0.048993  0.022191  0.001704)
 63:   1670.35   0.028158  142.30  0.005261  (-0.063526  0.034831 -0.003447)
 64:   3019.03   0.005900   29.82  0.000610  (-0.012891 -0.021051 -0.000726)
 65:   3023.33   0.003612   18.25  0.000373  (-0.012098  0.014745  0.003001)
 66:   3088.84   0.000481    2.43  0.000049  ( 0.001067 -0.004366 -0.005328)
 67:   3094.36   0.000199    1.01  0.000020  (-0.001196 -0.002410 -0.003582)
 68:   3159.13   0.002077   10.50  0.000205  ( 0.001891 -0.014108 -0.001598)
 69:   3159.94   0.001761    8.90  0.000174  ( 0.011551  0.005660  0.002904)
 70:   3170.25   0.000062    0.31  0.000006  (-0.001116  0.001758 -0.001327)
 71:   3180.20   0.000849    4.29  0.000083  ( 0.006770 -0.005918  0.001554)
 72:   3184.33   0.000979    4.95  0.000096  ( 0.009465 -0.001808  0.001768)
 73:   3195.79   0.000298    1.51  0.000029  ( 0.002576  0.004661  0.000857)
 74:   3217.40   0.000046    0.23  0.000004  (-0.000640  0.001972  0.000419)
 75:   3224.64   0.000063    0.32  0.000006  (-0.002442 -0.000100 -0.000401)
 76:   3233.87   0.000134    0.68  0.000013  ( 0.003304  0.001287  0.000575)
 77:   3240.56   0.000040    0.20  0.000004  ( 0.001737 -0.000889 -0.000049)

--------------------------
THERMOCHEMISTRY AT 298.15K
--------------------------

Temperature         ...   298.15 K
Pressure            ...     1.00 atm
Total Mass          ...   158.24 AMU
Quasi RRHO          ...     True
Cut-Off Frequency   ...     1.00 cm^-1

Throughout the following assumptions are being made:
  (1) The electronic state is orbitally nondegenerate
      but the spin degeneracy is treated
  (2) There are no thermally accessible electronically excited states
  (3) Hindered rotations indicated by low frequency modes are not
      treated as such but are treated as vibrations and this may
      cause some error
  (4) All equations used are the standard statistical mechanics
      equations for an ideal gas
  (5) All vibrations are strictly harmonic

freq.      63.86  E(vib)   ...       0.51
freq.      84.08  E(vib)   ...       0.48
freq.     107.83  E(vib)   ...       0.45
freq.     128.09  E(vib)   ...       0.43
freq.     150.01  E(vib)   ...       0.40
freq.     162.88  E(vib)   ...       0.39
freq.     192.23  E(vib)   ...       0.36
freq.     221.78  E(vib)   ...       0.33
freq.     261.61  E(vib)   ...       0.30
freq.     304.09  E(vib)   ...       0.26
freq.     326.06  E(vib)   ...       0.24
freq.     350.57  E(vib)   ...       0.23
freq.     400.57  E(vib)   ...       0.19
freq.     478.07  E(vib)   ...       0.15
freq.     502.06  E(vib)   ...       0.14
freq.     506.95  E(vib)   ...       0.14
freq.     592.47  E(vib)   ...       0.10
freq.     625.95  E(vib)   ...       0.09
freq.     745.16  E(vib)   ...       0.06
freq.     773.50  E(vib)   ...       0.05
freq.     812.89  E(vib)   ...       0.05
freq.     834.52  E(vib)   ...       0.04
freq.     839.52  E(vib)   ...       0.04
freq.     870.17  E(vib)   ...       0.04
freq.     902.84  E(vib)   ...       0.03
freq.     951.61  E(vib)   ...       0.03
freq.     958.59  E(vib)   ...       0.03
freq.     975.10  E(vib)   ...       0.03
freq.     980.56  E(vib)   ...       0.02
freq.    1006.19  E(vib)   ...       0.02
freq.    1036.56  E(vib)   ...       0.02
freq.    1038.63  E(vib)   ...       0.02
freq.    1045.16  E(vib)   ...       0.02
freq.    1062.62  E(vib)   ...       0.02
freq.    1124.83  E(vib)   ...       0.01
freq.    1157.06  E(vib)   ...       0.01
freq.    1171.57  E(vib)   ...       0.01
freq.    1190.93  E(vib)   ...       0.01
freq.    1233.15  E(vib)   ...       0.01
freq.    1255.24  E(vib)   ...       0.01
freq.    1299.92  E(vib)   ...       0.01
freq.    1311.39  E(vib)   ...       0.01
freq.    1318.20  E(vib)   ...       0.01
freq.    1354.06  E(vib)   ...       0.01
freq.    1362.17  E(vib)   ...       0.01
freq.    1384.10  E(vib)   ...       0.00
freq.    1388.84  E(vib)   ...       0.00
freq.    1426.73  E(vib)   ...       0.00
freq.    1438.28  E(vib)   ...       0.00
freq.    1441.63  E(vib)   ...       0.00
freq.    1457.12  E(vib)   ...       0.00
freq.    1469.33  E(vib)   ...       0.00
freq.    1495.16  E(vib)   ...       0.00
freq.    1515.10  E(vib)   ...       0.00
freq.    1575.77  E(vib)   ...       0.00
freq.    1606.72  E(vib)   ...       0.00
freq.    1662.79  E(vib)   ...       0.00
freq.    1670.35  E(vib)   ...       0.00
freq.    3019.03  E(vib)   ...       0.00
freq.    3023.33  E(vib)   ...       0.00
freq.    3088.84  E(vib)   ...       0.00
freq.    3094.36  E(vib)   ...       0.00
freq.    3159.13  E(vib)   ...       0.00
freq.    3159.94  E(vib)   ...       0.00
freq.    3170.25  E(vib)   ...       0.00
freq.    3180.20  E(vib)   ...       0.00
freq.    3184.33  E(vib)   ...       0.00
freq.    3195.79  E(vib)   ...       0.00
freq.    3217.40  E(vib)   ...       0.00
freq.    3224.64  E(vib)   ...       0.00
freq.    3233.87  E(vib)   ...       0.00
freq.    3240.56  E(vib)   ...       0.00

------------
INNER ENERGY
------------

The inner energy is: U= E(el) + E(ZPE) + E(vib) + E(rot) + E(trans)
    E(el)   - is the total energy from the electronic structure calculation
              = E(kin-el) + E(nuc-el) + E(el-el) + E(nuc-nuc)
    E(ZPE)  - the the zero temperature vibrational energy from the frequency calculation
    E(vib)  - the the finite temperature correction to E(ZPE) due to population
              of excited vibrational states
    E(rot)  - is the rotational thermal energy
    E(trans)- is the translational thermal energy

Summary of contributions to the inner energy U:
Electronic energy                ...   -464.50252538 Eh
Zero point energy                ...      0.22279317 Eh     139.80 kcal/mol
Thermal vibrational correction   ...      0.00933463 Eh       5.86 kcal/mol
Thermal rotational correction    ...      0.00141627 Eh       0.89 kcal/mol
Thermal translational correction ...      0.00141627 Eh       0.89 kcal/mol
-----------------------------------------------------------------------
Total thermal energy                   -464.26756505 Eh

Summary of corrections to the electronic energy:
(perhaps to be used in another calculation)
Total thermal correction                  0.01216717 Eh       7.63 kcal/mol
Non-thermal (ZPE) correction              0.22279317 Eh     139.80 kcal/mol
-----------------------------------------------------------------------
Total correction                          0.23496033 Eh     147.44 kcal/mol

--------
ENTHALPY
--------

The enthalpy is H = U + kB*T
                kB is Boltzmann's constant
Total thermal energy              ...   -464.26756505 Eh
Thermal Enthalpy correction       ...      0.00094421 Eh       0.59 kcal/mol
-----------------------------------------------------------------------
Total Enthalpy                    ...   -464.26662084 Eh

Note: Only C1 symmetry has been detected, increase convergence thresholds
      if your molecule has a higher symmetry. Symmetry factor of 1.0 is
      used for the rotational entropy correction.

Note: Rotational entropy computed according to Herzberg
Infrared and Raman Spectra, Chapter V,1, Van Nostrand Reinhold, 1945
Point Group:  C1, Symmetry Number:   1
Rotational constants in cm-1:     0.031811     0.026577     0.014887

Vibrational entropy computed according to the QRRHO of S. Grimme
Chem.Eur.J. 2012 18 9955 using a reference frequency of 100.0 cm-1

-------
ENTROPY
-------

The entropy contributions are T*S = T*(S(el)+S(vib)+S(rot)+S(trans))
     S(el)   - electronic entropy
     S(vib)  - vibrational entropy
     S(rot)  - rotational entropy
     S(trans)- translational entropy
The entropies will be listed as multiplied by the temperature to get
units of energy

                             ****ORCA TERMINATED NORMALLY****
TOTAL RUN TIME: 0 days 0 hours 18 minutes 3 seconds 514 msec
