                         Program Version 6.0.0  -   RELEASE  -
|  1> !PBE0 aug-cc-pVTZ d3 TightSCF SlowConv RIJCOSX defgrid2
|  2>
|  3> %pal
|  4> nprocs 4
|  5> end
|  6>
|  7> %scf
|  8> MaxIter 1500
|  9> end
| 10>
| 11> %maxcore 3000
| 12>
| 13> !CPCM
| 14> %cpcm smd true
| 15> SMDsolvent "MeCN"
| 16> surfacetype gepol_ses
| 17> rsolv 2.19
| 18> end
| 19>
| 20> * xyz 0 1
| 21> C           2.39749463161436     -0.83149819893554      0.67669387485363
| 22> C           1.27172397639116     -0.40047992295486     -0.03969915484816
| 23> C           1.38259238776027      0.76303550152059     -0.81642324820039
| 24> C           2.58576374302039      1.45963699946448     -0.89073073539891
| 25> C           3.70030483512470      1.01412413753758     -0.17987702815859
| 26> C           3.60056124987950     -0.13306932613824      0.60654243714533
| 27> H           4.46466138277505     -0.48209902986176      1.17996120108222
| 28> H           4.64383968195764      1.56540648474814     -0.23276704782048
| 29> H           2.65415437190379      2.35888092106518     -1.51038356423303
| 30> H           0.51264382726920      1.11680700092055     -1.37721808377949
| 31> C          -0.00001123541006     -1.16417502511622     -0.00002273576044
| 32> C          -0.00001884782649     -2.50996676952303     -0.00003277235160
| 33> H          -0.93225135885572     -3.07886784376654      0.08064455143521
| 34> H           0.93220419630722     -3.07888213761201     -0.08071574786352
| 35> C          -1.27174210287451     -0.40047320911747      0.03966757754902
| 36> C          -2.39750985071673     -0.83146289450512     -0.67674719863415
| 37> C          -3.60057439169967     -0.13303092760862     -0.60657919634084
| 38> C          -3.70031659242385      1.01413981080717      0.17987332068473
| 39> C          -2.58577653905984      1.45962201354211      0.89074922577948
| 40> C          -1.38260956202413      0.76301589591316      0.81642903255360
| 41> H          -0.51266418903044      1.11676009652396      1.37724534040847
| 42> H          -2.65416367308445      2.35884547498639      1.51043035509866
| 43> H          -4.64384894904450      1.56542539828851      0.23277593005599
| 44> H          -4.46467229568686     -0.48204204645132     -1.18001194866167
| 45> H          -2.31694066862491     -1.71619568559047     -1.31480317865473
| 46> H           2.31692587235889     -1.71625071813661      1.31472229405965
| 47> *
| 48>
| 49>                          ****END OF INPUT****

CARTESIAN COORDINATES (ANGSTROEM)
---------------------------------
  C      2.397495   -0.831498    0.676694
  C      1.271724   -0.400480   -0.039699
  C      1.382592    0.763036   -0.816423
  C      2.585764    1.459637   -0.890731
  C      3.700305    1.014124   -0.179877
  C      3.600561   -0.133069    0.606542
  H      4.464661   -0.482099    1.179961
  H      4.643840    1.565406   -0.232767
  H      2.654154    2.358881   -1.510384
  H      0.512644    1.116807   -1.377218
  C     -0.000011   -1.164175   -0.000023
  C     -0.000019   -2.509967   -0.000033
  H     -0.932251   -3.078868    0.080645
  H      0.932204   -3.078882   -0.080716
  C     -1.271742   -0.400473    0.039668
  C     -2.397510   -0.831463   -0.676747
  C     -3.600574   -0.133031   -0.606579
  C     -3.700317    1.014140    0.179873
  C     -2.585777    1.459622    0.890749
  C     -1.382610    0.763016    0.816429
  H     -0.512664    1.116760    1.377245
  H     -2.654164    2.358845    1.510430
  H     -4.643849    1.565425    0.232776
  H     -4.464672   -0.482042   -1.180012
  H     -2.316941   -1.716196   -1.314803
  H      2.316926   -1.716251    1.314722

 Total Charge           Charge          ....    0
 Multiplicity           Mult            ....    1
 Number of Electrons    NEL             ....   96
 Basis Dimension        Dim             ....  920

ORBITAL ENERGIES
----------------

  NO   OCC          E(Eh)            E(eV)
   0   2.0000     -10.248393      -278.8730
   1   2.0000     -10.244688      -278.7721
   2   2.0000     -10.244674      -278.7718
   3   2.0000     -10.232523      -278.4411
   4   2.0000     -10.232499      -278.4405
   5   2.0000     -10.232336      -278.4360
   6   2.0000     -10.232330      -278.4359
   7   2.0000     -10.231926      -278.4249
   8   2.0000     -10.231923      -278.4248
   9   2.0000     -10.231566      -278.4151
  10   2.0000     -10.231564      -278.4150
  11   2.0000     -10.231148      -278.4037
  12   2.0000     -10.231141      -278.4035
  13   2.0000     -10.222331      -278.1638
  14   2.0000      -0.899264       -24.4702
  15   2.0000      -0.882403       -24.0114
  16   2.0000      -0.831424       -22.6242
  17   2.0000      -0.772586       -21.0231
  18   2.0000      -0.772530       -21.0216
  19   2.0000      -0.766985       -20.8707
  20   2.0000      -0.740653       -20.1542
  21   2.0000      -0.651663       -17.7327
  22   2.0000      -0.628019       -17.0893
  23   2.0000      -0.619081       -16.8461
  24   2.0000      -0.616192       -16.7674
  25   2.0000      -0.567723       -15.4485
  26   2.0000      -0.539165       -14.6714
  27   2.0000      -0.514356       -13.9963
  28   2.0000      -0.481037       -13.0897
  29   2.0000      -0.476349       -12.9621
  30   2.0000      -0.465149       -12.6574
  31   2.0000      -0.454066       -12.3558
  32   2.0000      -0.451162       -12.2767
  33   2.0000      -0.431377       -11.7384
  34   2.0000      -0.430905       -11.7255
  35   2.0000      -0.428732       -11.6664
  36   2.0000      -0.395003       -10.7486
  37   2.0000      -0.388420       -10.5695
  38   2.0000      -0.387627       -10.5479
  39   2.0000      -0.367006        -9.9867
  40   2.0000      -0.355485        -9.6732
  41   2.0000      -0.347891        -9.4666
  42   2.0000      -0.342808        -9.3283
  43   2.0000      -0.315383        -8.5820
  44   2.0000      -0.275250        -7.4899
  45   2.0000      -0.271010        -7.3745
  46   2.0000      -0.268146        -7.2966
  47   2.0000      -0.237934        -6.4745
  48   0.0000      -0.044099        -1.2000
  49   0.0000      -0.021222        -0.5775
  50   0.0000      -0.016965        -0.4616
  51   0.0000      -0.003362        -0.0915
  52   0.0000       0.000738         0.0201

MULLIKEN ATOMIC CHARGES
-----------------------
   0 C :   -1.272156
   1 C :    1.936494
   2 C :   -0.824698
   3 C :   -0.907657
   4 C :   -0.267863
   5 C :   -0.793076
   6 H :    0.594635
   7 H :    0.608948
   8 H :    0.564494
   9 H :    0.161201
  10 C :    0.851005
  11 C :   -1.287164
  12 H :    0.302947
  13 H :    0.303195
  14 C :    1.939541
  15 C :   -1.281225
  16 C :   -0.795770
  17 C :   -0.263400
  18 C :   -0.895496
  19 C :   -0.809798
  20 H :    0.161980
  21 H :    0.562941
  22 H :    0.560059
  23 H :    0.645933
  24 H :    0.090881
  25 H :    0.114047
Sum of atomic charges:   -0.0000000

LOEWDIN ATOMIC CHARGES
----------------------
   0 C :    0.202221
   1 C :   -0.151967
   2 C :    0.200699
   3 C :    0.194040
   4 C :    0.183770
   5 C :    0.191914
   6 H :   -0.166397
   7 H :   -0.168078
   8 H :   -0.165958
   9 H :   -0.158348
  10 C :   -0.152588
  11 C :    0.547156
  12 H :   -0.193086
  13 H :   -0.193076
  14 C :   -0.151924
  15 C :    0.202235
  16 C :    0.191937
  17 C :    0.183820
  18 C :    0.194098
  19 C :    0.200678
  20 H :   -0.158468
  21 H :   -0.165958
  22 H :   -0.168097
  23 H :   -0.166390
  24 H :   -0.166123
  25 H :   -0.166112

  Mayer bond orders larger than 0.100000
B(  0-C ,  1-C ) :   0.3031 B(  0-C ,  2-C ) :  -0.5952 B(  0-C ,  3-C ) :   0.1401
B(  0-C ,  4-C ) :  -0.1413 B(  0-C ,  5-C ) :   1.5177 B(  0-C ,  6-H ) :  -0.1344
B(  0-C , 10-C ) :   0.2876 B(  0-C , 14-C ) :  -0.1112 B(  0-C , 25-H ) :   1.4605
B(  1-C ,  2-C ) :   0.6502 B(  1-C ,  4-C ) :  -0.1723 B(  1-C ,  8-H ) :   0.1044
B(  1-C , 11-C ) :  -0.2384 B(  1-C , 14-C ) :  -0.2115 B(  1-C , 15-C ) :  -0.1093
B(  2-C ,  3-C ) :   1.4414 B(  2-C ,  4-C ) :  -0.1074 B(  2-C ,  9-H ) :   1.2912
B(  2-C , 10-C ) :   0.1236 B(  2-C , 11-C ) :   0.1010 B(  2-C , 19-C ) :   0.1450
B(  3-C ,  4-C ) :   1.4353 B(  3-C ,  5-C ) :   0.2256 B(  3-C ,  8-H ) :   0.3833
B(  4-C ,  5-C ) :   1.2952 B(  4-C ,  7-H ) :   0.4255 B(  4-C , 10-C ) :   0.1895
B(  5-C ,  6-H ) :   0.3803 B(  9-H , 10-C ) :  -0.1235 B(  9-H , 25-H ) :   0.1761
B( 10-C , 11-C ) :   1.0077 B( 10-C , 15-C ) :   0.2880 B( 10-C , 17-C ) :   0.1980
B( 10-C , 19-C ) :   0.1308 B( 10-C , 20-H ) :  -0.1181 B( 10-C , 24-H ) :  -0.1513
B( 10-C , 25-H ) :  -0.1485 B( 11-C , 12-H ) :   0.9251 B( 11-C , 13-H ) :   0.9238
B( 11-C , 14-C ) :  -0.2441 B( 14-C , 15-C ) :   0.2978 B( 14-C , 17-C ) :  -0.1577
B( 14-C , 19-C ) :   0.6534 B( 14-C , 21-H ) :   0.1086 B( 15-C , 16-C ) :   1.5214
B( 15-C , 17-C ) :  -0.1647 B( 15-C , 18-C ) :   0.1532 B( 15-C , 19-C ) :  -0.6034
B( 15-C , 20-H ) :   0.1005 B( 15-C , 23-H ) :  -0.1434 B( 15-C , 24-H ) :   1.5148
B( 16-C , 17-C ) :   1.2916 B( 16-C , 18-C ) :   0.2396 B( 16-C , 23-H ) :   0.2883
B( 17-C , 18-C ) :   1.4071 B( 17-C , 19-C ) :  -0.1185 B( 17-C , 22-H ) :   0.4907
B( 17-C , 23-H ) :   0.1003 B( 18-C , 19-C ) :   1.4348 B( 18-C , 21-H ) :   0.3855
B( 19-C , 20-H ) :   1.2885 B( 20-H , 24-H ) :   0.1862

Dispersion correction           -0.028939982
FINAL SINGLE POINT ENERGY      -540.270610179404

DIPOLE MOMENT
-------------

Method             : SCF
Type of density    : Electron Density
Multiplicity       :   1
Irrep              :   0
Energy             :  -540.2416701972091460 Eh
Relativity type    :
Basis              : AO
                                X                 Y                 Z
Electronic contribution:     -0.000765554       0.598555716      -0.001030750
Nuclear contribution   :     -0.000009105      -0.465365266       0.000012542
                        -----------------------------------------
Total Dipole Moment    :     -0.000774659       0.133190450      -0.001018207
                        -----------------------------------------
Magnitude (a.u.)       :      0.133196595
Magnitude (Debye)      :      0.338558839

Rotational constants in cm-1:             0.053104             0.013986             0.012201
Rotational constants in MHz :          1592.023360           419.285369           365.773053

                             ****ORCA TERMINATED NORMALLY****
TOTAL RUN TIME: 0 days 0 hours 13 minutes 37 seconds 913 msec
