                         Program Version 6.0.0  -   RELEASE  -
|  1> !r2SCANh freq aug-cc-pVTZ d3 TightSCF SlowConv RIJCOSX defgrid2
|  2>
|  3> %pal
|  4> nprocs 12
|  5> end
|  6>
|  7> %scf
|  8> MaxIter 1500
|  9> end
| 10>
| 11> %maxcore 5000
| 12>
| 13> !CPCM
| 14> %cpcm smd true
| 15> SMDsolvent "MeCN"
| 16> surfacetype gepol_ses
| 17> rsolv 2.19
| 18> end
| 19>
| 20> * xyz 1 2
| 21> C           2.41406134966037     -0.93169335327331      0.55998776782656
| 22> C           1.25658624186347     -0.38085213389331     -0.02680261405845
| 23> C           1.34766384210902      0.86990040328931     -0.67318916037982
| 24> C           2.54768577241423      1.54518081856612     -0.71842033575055
| 25> C           3.67462304587141      0.99858383231152     -0.11034154925938
| 26> C           3.60241893425178     -0.23813524145180      0.53098772488523
| 27> H           4.47981535591466     -0.65128881377169      1.00720596147882
| 28> H           4.61528857490136      1.53026191557999     -0.14535215356960
| 29> H           2.61573060832590      2.49050904747908     -1.23698234927040
| 30> H           0.48258335155832      1.27136935977582     -1.18043268997231
| 31> C          -0.00000510204407     -1.09403988099897      0.00025093698938
| 32> C          -0.00001162831625     -2.48082463948304      0.00030665813428
| 33> H          -0.92334814798310     -3.03924445136199     -0.02277078687597
| 34> H           0.92330814212593     -3.03926654456933      0.02349656530856
| 35> C          -1.25661480804341     -0.38085880162295      0.02714244725267
| 36> C          -2.41387046266192     -0.93151396101068     -0.56023026579814
| 37> C          -3.60218749019139     -0.23786343344276     -0.53167007147424
| 38> C          -3.67459368778643      0.99876690378460      0.10979257475993
| 39> C          -2.54790810215906      1.54514772624155      0.71854367005524
| 40> C          -1.34794503149894      0.86974510557680      0.67376456368082
| 41> H          -0.48317209612389      1.27106017293854      1.18165205797745
| 42> H          -2.61609837923781      2.49040080957273      1.23723044821320
| 43> H          -4.61522266136632      1.53053342813538      0.14438215708937
| 44> H          -4.47937454425590     -0.65085706688590     -1.00841403403457
| 45> H          -2.35782706224080     -1.87876675059794     -1.07612286448476
| 46> H           2.35818138491287     -1.87904845088776      1.07570944127665
| 47> *
| 48>
| 49>                          ****END OF INPUT****

CARTESIAN COORDINATES (ANGSTROEM)
---------------------------------
  C      2.414061   -0.931693    0.559988
  C      1.256586   -0.380852   -0.026803
  C      1.347664    0.869900   -0.673189
  C      2.547686    1.545181   -0.718420
  C      3.674623    0.998584   -0.110342
  C      3.602419   -0.238135    0.530988
  H      4.479815   -0.651289    1.007206
  H      4.615289    1.530262   -0.145352
  H      2.615731    2.490509   -1.236982
  H      0.482583    1.271369   -1.180433
  C     -0.000005   -1.094040    0.000251
  C     -0.000012   -2.480825    0.000307
  H     -0.923348   -3.039244   -0.022771
  H      0.923308   -3.039267    0.023497
  C     -1.256615   -0.380859    0.027142
  C     -2.413870   -0.931514   -0.560230
  C     -3.602187   -0.237863   -0.531670
  C     -3.674594    0.998767    0.109793
  C     -2.547908    1.545148    0.718544
  C     -1.347945    0.869745    0.673765
  H     -0.483172    1.271060    1.181652
  H     -2.616098    2.490401    1.237230
  H     -4.615223    1.530533    0.144382
  H     -4.479375   -0.650857   -1.008414
  H     -2.357827   -1.878767   -1.076123
  H      2.358181   -1.879048    1.075709

 Total Charge           Charge          ....    1
 Multiplicity           Mult            ....    2
 Number of Electrons    NEL             ....   95
 Basis Dimension        Dim             ....  920

ORBITAL ENERGIES
----------------
                 SPIN UP ORBITALS
  NO   OCC          E(Eh)            E(eV)
   0   1.0000     -10.236657      -278.5536
   1   1.0000     -10.222047      -278.1560
   2   1.0000     -10.210517      -277.8423
   3   1.0000     -10.210514      -277.8422
   4   1.0000     -10.191685      -277.3298
   5   1.0000     -10.191675      -277.3296
   6   1.0000     -10.191454      -277.3236
   7   1.0000     -10.191422      -277.3227
   8   1.0000     -10.190234      -277.2904
   9   1.0000     -10.190228      -277.2902
  10   1.0000     -10.179820      -277.0070
  11   1.0000     -10.179818      -277.0069
  12   1.0000     -10.179315      -276.9932
  13   1.0000     -10.179308      -276.9931
  14   1.0000      -0.914001       -24.8712
  15   1.0000      -0.887532       -24.1510
  16   1.0000      -0.848299       -23.0834
  17   1.0000      -0.781163       -21.2565
  18   1.0000      -0.779894       -21.2220
  19   1.0000      -0.771525       -20.9943
  20   1.0000      -0.756483       -20.5849
  21   1.0000      -0.671187       -18.2639
  22   1.0000      -0.636257       -17.3134
  23   1.0000      -0.625743       -17.0273
  24   1.0000      -0.619354       -16.8535
  25   1.0000      -0.576359       -15.6835
  26   1.0000      -0.545909       -14.8549
  27   1.0000      -0.523690       -14.2503
  28   1.0000      -0.487497       -13.2655
  29   1.0000      -0.487274       -13.2594
  30   1.0000      -0.468164       -12.7394
  31   1.0000      -0.458718       -12.4824
  32   1.0000      -0.456995       -12.4355
  33   1.0000      -0.437012       -11.8917
  34   1.0000      -0.435741       -11.8571
  35   1.0000      -0.435420       -11.8484
  36   1.0000      -0.405847       -11.0437
  37   1.0000      -0.402796       -10.9606
  38   1.0000      -0.395884       -10.7726
  39   1.0000      -0.370131       -10.0718
  40   1.0000      -0.359636        -9.7862
  41   1.0000      -0.356196        -9.6926
  42   1.0000      -0.349301        -9.5050
  43   1.0000      -0.341753        -9.2996
  44   1.0000      -0.285388        -7.7658
  45   1.0000      -0.282516        -7.6877
  46   1.0000      -0.276621        -7.5273
  47   1.0000      -0.266553        -7.2533
  48   0.0000      -0.113167        -3.0794
  49   0.0000      -0.061538        -1.6745
  50   0.0000      -0.050884        -1.3846
  51   0.0000      -0.037341        -1.0161
  52   0.0000       0.005041         0.1372

                 SPIN DOWN ORBITALS
  NO   OCC          E(Eh)            E(eV)
   0   1.0000     -10.237465      -278.5756
   1   1.0000     -10.211767      -277.8763
   2   1.0000     -10.209347      -277.8104
   3   1.0000     -10.209345      -277.8104
   4   1.0000     -10.190280      -277.2916
   5   1.0000     -10.190248      -277.2908
   6   1.0000     -10.189366      -277.2668
   7   1.0000     -10.189358      -277.2665
   8   1.0000     -10.189181      -277.2617
   9   1.0000     -10.189176      -277.2616
  10   1.0000     -10.180467      -277.0246
  11   1.0000     -10.180464      -277.0245
  12   1.0000     -10.180049      -277.0132
  13   1.0000     -10.180042      -277.0130
  14   1.0000      -0.909816       -24.7574
  15   1.0000      -0.884384       -24.0653
  16   1.0000      -0.841812       -22.9069
  17   1.0000      -0.778565       -21.1858
  18   1.0000      -0.776803       -21.1379
  19   1.0000      -0.768703       -20.9175
  20   1.0000      -0.740828       -20.1589
  21   1.0000      -0.663273       -18.0486
  22   1.0000      -0.634119       -17.2553
  23   1.0000      -0.621926       -16.9235
  24   1.0000      -0.617620       -16.8063
  25   1.0000      -0.573320       -15.6008
  26   1.0000      -0.545368       -14.8402
  27   1.0000      -0.521324       -14.1859
  28   1.0000      -0.485944       -13.2232
  29   1.0000      -0.485331       -13.2065
  30   1.0000      -0.466558       -12.6957
  31   1.0000      -0.455638       -12.3985
  32   1.0000      -0.455235       -12.3876
  33   1.0000      -0.435981       -11.8637
  34   1.0000      -0.435195       -11.8423
  35   1.0000      -0.432941       -11.7809
  36   1.0000      -0.402975       -10.9655
  37   1.0000      -0.394881       -10.7453
  38   1.0000      -0.387793       -10.5524
  39   1.0000      -0.369717       -10.0605
  40   1.0000      -0.359319        -9.7776
  41   1.0000      -0.350501        -9.5376
  42   1.0000      -0.348179        -9.4744
  43   1.0000      -0.324635        -8.8338
  44   1.0000      -0.280877        -7.6430
  45   1.0000      -0.274622        -7.4729
  46   1.0000      -0.268441        -7.3047
  47   0.0000      -0.202516        -5.5107
  48   0.0000      -0.076564        -2.0834
  49   0.0000      -0.052447        -1.4272
  50   0.0000      -0.046049        -1.2530
  51   0.0000      -0.031858        -0.8669

MULLIKEN ATOMIC CHARGES AND SPIN POPULATIONS
--------------------------------------------
   0 C :   -1.123192    0.046477
   1 C :    2.632682    0.133155
   2 C :   -0.648252    0.065297
   3 C :   -1.055530   -0.054635
   4 C :   -0.126061    0.144235
   5 C :   -0.835460   -0.050532
   6 H :    0.517397   -0.000858
   7 H :    0.561438    0.004115
   8 H :    0.481841   -0.000847
   9 H :    0.093013    0.001043
  10 C :    0.799385   -0.121619
  11 C :   -1.105096    0.478100
  12 H :    0.264848    0.032267
  13 H :    0.264136    0.032242
  14 C :    2.624803    0.132953
  15 C :   -1.108301    0.046330
  16 C :   -0.838731   -0.050488
  17 C :   -0.125575    0.144200
  18 C :   -1.044576   -0.054720
  19 C :   -0.641921    0.065075
  20 H :    0.088946    0.001317
  21 H :    0.495161   -0.000943
  22 H :    0.527411    0.004318
  23 H :    0.512264   -0.000897
  24 H :   -0.104254    0.002294
  25 H :   -0.106374    0.002123
Sum of atomic charges         :    1.0000000

LOEWDIN ATOMIC CHARGES AND SPIN POPULATIONS
-------------------------------------------
   0 C :    0.255437    0.035562
   1 C :   -0.093612    0.052214
   2 C :    0.243937    0.039223
   3 C :    0.251384    0.009963
   4 C :    0.248838    0.061777
   5 C :    0.249261    0.011296
   6 H :   -0.162492   -0.003069
   7 H :   -0.157154    0.015515
   8 H :   -0.161619   -0.003417
   9 H :   -0.160936    0.007067
  10 C :   -0.055045    0.097122
  11 C :    0.698702    0.306255
  12 H :   -0.166990    0.065679
  13 H :   -0.167019    0.065678
  14 C :   -0.093642    0.052173
  15 C :    0.255438    0.035542
  16 C :    0.249245    0.011291
  17 C :    0.248830    0.061742
  18 C :    0.251385    0.009954
  19 C :    0.243839    0.039209
  20 H :   -0.160977    0.007064
  21 H :   -0.161603   -0.003416
  22 H :   -0.157171    0.015507
  23 H :   -0.162492   -0.003067
  24 H :   -0.167761    0.006568
  25 H :   -0.167782    0.006568

  Mayer bond orders larger than 0.100000
B(  0-C ,  1-C ) :  -0.3733 B(  0-C ,  2-C ) :  -0.8340 B(  0-C ,  3-C ) :   0.1079
B(  0-C ,  4-C ) :  -0.1583 B(  0-C ,  5-C ) :   1.3454 B(  0-C ,  6-H ) :  -0.1604
B(  0-C , 10-C ) :   0.3875 B(  0-C , 25-H ) :   1.8938 B(  1-C ,  2-C ) :   0.2459
B(  1-C ,  3-C ) :  -0.1704 B(  1-C ,  4-C ) :  -0.2261 B(  1-C , 10-C ) :  -0.1760
B(  1-C , 11-C ) :  -0.3624 B(  1-C , 14-C ) :  -0.2716 B(  1-C , 25-H ) :  -0.1737
B(  2-C ,  3-C ) :   1.3365 B(  2-C ,  9-H ) :   1.5036 B(  2-C , 10-C ) :   0.3408
B(  2-C , 11-C ) :   0.1128 B(  2-C , 19-C ) :   0.1353 B(  3-C ,  4-C ) :   1.2312
B(  3-C ,  5-C ) :   0.3432 B(  3-C ,  8-H ) :   0.4489 B(  3-C , 25-H ) :  -0.1165
B(  4-C ,  5-C ) :   1.0869 B(  4-C ,  7-H ) :   0.4823 B(  4-C , 10-C ) :   0.2061
B(  5-C ,  6-H ) :   0.4605 B(  5-C ,  9-H ) :  -0.1534 B(  5-C , 10-C ) :   0.1057
B(  9-H , 10-C ) :  -0.1259 B(  9-H , 25-H ) :   0.1785 B( 10-C , 11-C ) :   0.5548
B( 10-C , 14-C ) :  -0.1759 B( 10-C , 15-C ) :   0.3891 B( 10-C , 16-C ) :   0.1054
B( 10-C , 17-C ) :   0.2080 B( 10-C , 19-C ) :   0.3379 B( 10-C , 20-H ) :  -0.1253
B( 10-C , 24-H ) :  -0.2350 B( 10-C , 25-H ) :  -0.2344 B( 11-C , 12-H ) :   0.9606
B( 11-C , 13-H ) :   0.9611 B( 11-C , 14-C ) :  -0.3571 B( 11-C , 19-C ) :   0.1117
B( 14-C , 15-C ) :  -0.3683 B( 14-C , 17-C ) :  -0.2130 B( 14-C , 18-C ) :  -0.1600
B( 14-C , 19-C ) :   0.2496 B( 14-C , 24-H ) :  -0.1703 B( 15-C , 16-C ) :   1.3415
B( 15-C , 17-C ) :  -0.1773 B( 15-C , 18-C ) :   0.1006 B( 15-C , 19-C ) :  -0.8401
B( 15-C , 23-H ) :  -0.1564 B( 15-C , 24-H ) :   1.8840 B( 16-C , 17-C ) :   1.0822
B( 16-C , 18-C ) :   0.3540 B( 16-C , 20-H ) :  -0.1478 B( 16-C , 23-H ) :   0.4666
B( 17-C , 18-C ) :   1.2172 B( 17-C , 22-H ) :   0.5424 B( 18-C , 19-C ) :   1.3241
B( 18-C , 21-H ) :   0.4189 B( 18-C , 24-H ) :  -0.1133 B( 19-C , 20-H ) :   1.5023
B( 20-H , 24-H ) :   0.1794

Dispersion correction           -0.010904508
FINAL SINGLE POINT ENERGY      -540.358134040261

DIPOLE MOMENT
-------------

Method             : SCF
Type of density    : Electron Density
Multiplicity       :   2
Irrep              :   0
Energy             :  -540.3472295326679387 Eh
Relativity type    :
Basis              : AO
                                X                 Y                 Z
Electronic contribution:      0.000161710      -0.275409798      -0.000167914
Nuclear contribution   :     -0.000045706      -0.598852123      -0.000440336
                        -----------------------------------------
Total Dipole Moment    :      0.000116004      -0.874261921      -0.000608250
                        -----------------------------------------
Magnitude (a.u.)       :      0.874262140
Magnitude (Debye)      :      2.222197759

VIBRATIONAL FREQUENCIES
-----------------------

Scaling factor for frequencies =  1.000000000  (already applied!)

     0:       0.00 cm**-1
     1:       0.00 cm**-1
     2:       0.00 cm**-1
     3:       0.00 cm**-1
     4:       0.00 cm**-1
     5:       0.00 cm**-1
     6:      37.82 cm**-1
     7:      64.64 cm**-1
     8:      79.25 cm**-1
     9:     118.73 cm**-1
    10:     211.51 cm**-1
    11:     253.62 cm**-1
    12:     304.73 cm**-1
    13:     343.79 cm**-1
    14:     394.70 cm**-1
    15:     406.39 cm**-1
    16:     420.90 cm**-1
    17:     427.77 cm**-1
    18:     485.89 cm**-1
    19:     564.85 cm**-1
    20:     593.79 cm**-1
    21:     614.62 cm**-1
    22:     617.85 cm**-1
    23:     622.95 cm**-1
    24:     684.72 cm**-1
    25:     689.50 cm**-1
    26:     739.75 cm**-1
    27:     798.10 cm**-1
    28:     804.58 cm**-1
    29:     846.97 cm**-1
    30:     847.30 cm**-1
    31:     853.55 cm**-1
    32:     941.70 cm**-1
    33:     969.38 cm**-1
    34:     971.75 cm**-1
    35:    1009.72 cm**-1
    36:    1010.73 cm**-1
    37:    1014.40 cm**-1
    38:    1019.71 cm**-1
    39:    1031.56 cm**-1
    40:    1032.70 cm**-1
    41:    1042.13 cm**-1
    42:    1046.76 cm**-1
    43:    1071.90 cm**-1
    44:    1118.38 cm**-1
    45:    1122.99 cm**-1
    46:    1171.50 cm**-1
    47:    1173.16 cm**-1
    48:    1178.64 cm**-1
    49:    1194.35 cm**-1
    50:    1207.69 cm**-1
    51:    1327.91 cm**-1
    52:    1331.96 cm**-1
    53:    1381.41 cm**-1
    54:    1386.75 cm**-1
    55:    1407.59 cm**-1
    56:    1408.21 cm**-1
    57:    1475.45 cm**-1
    58:    1476.93 cm**-1
    59:    1510.22 cm**-1
    60:    1517.59 cm**-1
    61:    1530.99 cm**-1
    62:    1585.65 cm**-1
    63:    1586.43 cm**-1
    64:    1604.72 cm**-1
    65:    1655.64 cm**-1
    66:    3185.87 cm**-1
    67:    3204.74 cm**-1
    68:    3204.96 cm**-1
    69:    3211.47 cm**-1
    70:    3212.60 cm**-1
    71:    3216.25 cm**-1
    72:    3217.52 cm**-1
    73:    3224.14 cm**-1
    74:    3225.00 cm**-1
    75:    3228.56 cm**-1
    76:    3229.83 cm**-1
    77:    3294.22 cm**-1

IR SPECTRUM
-----------

 Mode   freq       eps      Int      T**2         TX        TY        TZ
       cm**-1   L/(mol*cm) km/mol    a.u.
----------------------------------------------------------------------------
  6:     37.82   0.002194   11.09  0.018099  ( 0.134530 -0.000002 -0.000719)
  7:     64.64   0.000005    0.03  0.000026  ( 0.000563  0.005030  0.000051)
  8:     79.25   0.000032    0.16  0.000124  ( 0.000530 -0.011129  0.000043)
  9:    118.73   0.003593   18.16  0.009444  ( 0.078601 -0.000022  0.057144)
 10:    211.51   0.000016    0.08  0.000023  ( 0.000127 -0.004846  0.000023)
 11:    253.62   0.000602    3.04  0.000741  ( 0.020889  0.000044  0.017447)
 12:    304.73   0.000017    0.08  0.000017  ( 0.000069  0.004148  0.000015)
 13:    343.79   0.021972  111.04  0.019944  ( 0.141089 -0.000038 -0.006177)
 14:    394.70   0.015705   79.37  0.012417  ( 0.111396  0.000028 -0.002843)
 15:    406.39   0.000000    0.00  0.000000  (-0.000397 -0.000360 -0.000028)
 16:    420.90   0.000353    1.78  0.000261  (-0.000106  0.016170  0.000027)
 17:    427.77   0.011745   59.36  0.008568  ( 0.089400  0.000069  0.023999)
 18:    485.89   0.000128    0.65  0.000082  (-0.000026  0.009077 -0.000058)
 19:    564.85   0.003072   15.52  0.001697  ( 0.000252 -0.041196 -0.000061)
 20:    593.79   0.026738  135.12  0.014052  ( 0.116965  0.000075 -0.019276)
 21:    614.62   0.000921    4.65  0.000468  (-0.020485 -0.000063 -0.006928)
 22:    617.85   0.000010    0.05  0.000005  ( 0.000185  0.002279  0.000032)
 23:    622.95   0.011684   59.05  0.005853  (-0.075137 -0.000096  0.014404)
 24:    684.72   0.006992   35.33  0.003187  ( 0.000102  0.056419 -0.001862)
 25:    689.50   0.029155  147.34  0.013195  ( 0.022198 -0.000914 -0.112702)
 26:    739.75   0.000019    0.10  0.000008  (-0.000132 -0.002814  0.000055)
 27:    798.10   0.004848   24.50  0.001896  ( 0.000573  0.043534 -0.000494)
 28:    804.58   0.032667  165.09  0.012670  (-0.084032  0.000311  0.074891)
 29:    846.97   0.000593    3.00  0.000218  (-0.004523  0.014068  0.000192)
 30:    847.30   0.011466   57.94  0.004223  (-0.064916 -0.000941  0.002822)
 31:    853.55   0.014161   71.57  0.005177  (-0.071943  0.000003  0.001286)
 32:    941.70   0.018999   96.01  0.006296  ( 0.061791  0.000010 -0.049776)
 33:    969.38   0.000280    1.41  0.000090  ( 0.000124  0.009485 -0.000243)
 34:    971.75   0.000175    0.88  0.000056  (-0.004757  0.000435  0.005771)
 35:   1009.72   0.021765  109.99  0.006727  ( 0.081964 -0.000478 -0.002909)
 36:   1010.73   0.000375    1.90  0.000116  ( 0.005635  0.009166 -0.000147)
 37:   1014.40   0.028863  145.86  0.008879  ( 0.094206 -0.000076  0.002108)
 38:   1019.71   0.000316    1.60  0.000097  ( 0.000177 -0.009831  0.000001)
 39:   1031.56   0.000250    1.27  0.000076  (-0.000700  0.008646 -0.000734)
 40:   1032.70   0.000173    0.87  0.000052  ( 0.005551  0.001380  0.004409)
 41:   1042.13   0.008021   40.53  0.002402  ( 0.049009 -0.000060 -0.000135)
 42:   1046.76   0.000002    0.01  0.000001  ( 0.000072 -0.000708 -0.000005)
 43:   1071.90   0.035961  181.73  0.010469  (-0.102085 -0.000021  0.006930)
 44:   1118.38   0.001393    7.04  0.000389  (-0.000184 -0.019713 -0.000064)
 45:   1122.99   0.014960   75.60  0.004157  ( 0.061108  0.000009  0.020567)
 46:   1171.50   0.002390   12.08  0.000637  ( 0.000205 -0.025229  0.000030)
 47:   1173.16   0.000253    1.28  0.000067  ( 0.005263  0.000049  0.006282)
 48:   1178.64   0.006723   33.98  0.001780  ( 0.000026  0.042191  0.000010)
 49:   1194.35   0.090421  456.95  0.023626  (-0.153615 -0.000001  0.005290)
 50:   1207.69   0.000000    0.00  0.000000  (-0.000016  0.000180  0.000037)
 51:   1327.91   0.020169  101.93  0.004740  (-0.068604 -0.000060  0.005761)
 52:   1331.96   0.000469    2.37  0.000110  (-0.000249  0.010476  0.000046)
 53:   1381.41   0.000876    4.43  0.000198  (-0.000122 -0.014069 -0.000033)
 54:   1386.75   0.030462  153.94  0.006855  ( 0.081307 -0.000059  0.015622)
 55:   1407.59   0.010719   54.17  0.002377  (-0.004011  0.048582  0.000474)
 56:   1408.21   0.123261  622.91  0.027315  ( 0.164115  0.001222 -0.019489)
 57:   1475.45   0.002114   10.68  0.000447  ( 0.000333  0.021144  0.000098)
 58:   1476.93   0.020710  104.66  0.004376  (-0.061038  0.000046 -0.025501)
 59:   1510.22   0.006492   32.81  0.001341  (-0.000653  0.036620  0.000003)
 60:   1517.59   0.112379  567.92  0.023109  ( 0.152015  0.000099 -0.000133)
 61:   1530.99   0.000009    0.05  0.000002  (-0.000093 -0.001356 -0.000010)
 62:   1585.65   0.002368   11.97  0.000466  ( 0.021489  0.000005  0.002070)
 63:   1586.43   0.000017    0.09  0.000003  (-0.000074  0.001835  0.000005)
 64:   1604.72   0.469885  2374.60  0.091377  (-0.302179 -0.000009  0.008049)
 65:   1655.64   0.013064   66.02  0.002462  ( 0.000031  0.049622 -0.000020)
 66:   3185.87   0.000266    1.34  0.000026  ( 0.000003  0.005104 -0.000004)
 67:   3204.74   0.000601    3.04  0.000059  ( 0.007628 -0.000129 -0.000548)
 68:   3204.96   0.000019    0.09  0.000002  (-0.001031 -0.000869  0.000064)
 69:   3211.47   0.000395    2.00  0.000038  (-0.005893 -0.000049 -0.001924)
 70:   3212.60   0.000602    3.04  0.000058  (-0.000153 -0.007644 -0.000013)
 71:   3216.25   0.000103    0.52  0.000010  (-0.003061 -0.000106 -0.000805)
 72:   3217.52   0.001112    5.62  0.000108  (-0.000038  0.010384 -0.000007)
 73:   3224.14   0.001114    5.63  0.000108  ( 0.002203  0.000045  0.010148)
 74:   3225.00   0.001096    5.54  0.000106  ( 0.000321  0.010295 -0.000067)
 75:   3228.56   0.024306  122.83  0.002349  ( 0.048464 -0.000111 -0.000778)
 76:   3229.83   0.000614    3.10  0.000059  (-0.000343 -0.007693 -0.000016)
 77:   3294.22   0.000053    0.27  0.000005  ( 0.002129 -0.000003 -0.000704)

--------------------------
THERMOCHEMISTRY AT 298.15K
--------------------------

Temperature         ...   298.15 K
Pressure            ...     1.00 atm
Total Mass          ...   180.25 AMU
Quasi RRHO          ...     True
Cut-Off Frequency   ...     1.00 cm^-1

Throughout the following assumptions are being made:
  (1) The electronic state is orbitally nondegenerate
      but the spin degeneracy is treated
  (2) There are no thermally accessible electronically excited states
  (3) Hindered rotations indicated by low frequency modes are not
      treated as such but are treated as vibrations and this may
      cause some error
  (4) All equations used are the standard statistical mechanics
      equations for an ideal gas
  (5) All vibrations are strictly harmonic

freq.      37.82  E(vib)   ...       0.54
freq.      64.64  E(vib)   ...       0.50
freq.      79.25  E(vib)   ...       0.49
freq.     118.73  E(vib)   ...       0.44
freq.     211.51  E(vib)   ...       0.34
freq.     253.62  E(vib)   ...       0.30
freq.     304.73  E(vib)   ...       0.26
freq.     343.79  E(vib)   ...       0.23
freq.     394.70  E(vib)   ...       0.20
freq.     406.39  E(vib)   ...       0.19
freq.     420.90  E(vib)   ...       0.18
freq.     427.77  E(vib)   ...       0.18
freq.     485.89  E(vib)   ...       0.15
freq.     564.85  E(vib)   ...       0.11
freq.     593.79  E(vib)   ...       0.10
freq.     614.62  E(vib)   ...       0.10
freq.     617.85  E(vib)   ...       0.09
freq.     622.95  E(vib)   ...       0.09
freq.     684.72  E(vib)   ...       0.07
freq.     689.50  E(vib)   ...       0.07
freq.     739.75  E(vib)   ...       0.06
freq.     798.10  E(vib)   ...       0.05
freq.     804.58  E(vib)   ...       0.05
freq.     846.97  E(vib)   ...       0.04
freq.     847.30  E(vib)   ...       0.04
freq.     853.55  E(vib)   ...       0.04
freq.     941.70  E(vib)   ...       0.03
freq.     969.38  E(vib)   ...       0.03
freq.     971.75  E(vib)   ...       0.03
freq.    1009.72  E(vib)   ...       0.02
freq.    1010.73  E(vib)   ...       0.02
freq.    1014.40  E(vib)   ...       0.02
freq.    1019.71  E(vib)   ...       0.02
freq.    1031.56  E(vib)   ...       0.02
freq.    1032.70  E(vib)   ...       0.02
freq.    1042.13  E(vib)   ...       0.02
freq.    1046.76  E(vib)   ...       0.02
freq.    1071.90  E(vib)   ...       0.02
freq.    1118.38  E(vib)   ...       0.01
freq.    1122.99  E(vib)   ...       0.01
freq.    1171.50  E(vib)   ...       0.01
freq.    1173.16  E(vib)   ...       0.01
freq.    1178.64  E(vib)   ...       0.01
freq.    1194.35  E(vib)   ...       0.01
freq.    1207.69  E(vib)   ...       0.01
freq.    1327.91  E(vib)   ...       0.01
freq.    1331.96  E(vib)   ...       0.01
freq.    1381.41  E(vib)   ...       0.01
freq.    1386.75  E(vib)   ...       0.00
freq.    1407.59  E(vib)   ...       0.00
freq.    1408.21  E(vib)   ...       0.00
freq.    1475.45  E(vib)   ...       0.00
freq.    1476.93  E(vib)   ...       0.00
freq.    1510.22  E(vib)   ...       0.00
freq.    1517.59  E(vib)   ...       0.00
freq.    1530.99  E(vib)   ...       0.00
freq.    1585.65  E(vib)   ...       0.00
freq.    1586.43  E(vib)   ...       0.00
freq.    1604.72  E(vib)   ...       0.00
freq.    1655.64  E(vib)   ...       0.00
freq.    3185.87  E(vib)   ...       0.00
freq.    3204.74  E(vib)   ...       0.00
freq.    3204.96  E(vib)   ...       0.00
freq.    3211.47  E(vib)   ...       0.00
freq.    3212.60  E(vib)   ...       0.00
freq.    3216.25  E(vib)   ...       0.00
freq.    3217.52  E(vib)   ...       0.00
freq.    3224.14  E(vib)   ...       0.00
freq.    3225.00  E(vib)   ...       0.00
freq.    3228.56  E(vib)   ...       0.00
freq.    3229.83  E(vib)   ...       0.00
freq.    3294.22  E(vib)   ...       0.00

------------
INNER ENERGY
------------

The inner energy is: U= E(el) + E(ZPE) + E(vib) + E(rot) + E(trans)
    E(el)   - is the total energy from the electronic structure calculation
              = E(kin-el) + E(nuc-el) + E(el-el) + E(nuc-nuc)
    E(ZPE)  - the the zero temperature vibrational energy from the frequency calculation
    E(vib)  - the the finite temperature correction to E(ZPE) due to population
              of excited vibrational states
    E(rot)  - is the rotational thermal energy
    E(trans)- is the translational thermal energy

Summary of contributions to the inner energy U:
Electronic energy                ...   -540.35813404 Eh
Zero point energy                ...      0.21414781 Eh     134.38 kcal/mol
Thermal vibrational correction   ...      0.00849751 Eh       5.33 kcal/mol
Thermal rotational correction    ...      0.00141627 Eh       0.89 kcal/mol
Thermal translational correction ...      0.00141627 Eh       0.89 kcal/mol
-----------------------------------------------------------------------
Total thermal energy                   -540.13265618 Eh

Summary of corrections to the electronic energy:
(perhaps to be used in another calculation)
Total thermal correction                  0.01133005 Eh       7.11 kcal/mol
Non-thermal (ZPE) correction              0.21414781 Eh     134.38 kcal/mol
-----------------------------------------------------------------------
Total correction                          0.22547786 Eh     141.49 kcal/mol

--------
ENTHALPY
--------

The enthalpy is H = U + kB*T
                kB is Boltzmann's constant
Total thermal energy              ...   -540.13265618 Eh
Thermal Enthalpy correction       ...      0.00094421 Eh       0.59 kcal/mol
-----------------------------------------------------------------------
Total Enthalpy                    ...   -540.13171198 Eh

Note: Only C1 symmetry has been detected, increase convergence thresholds
      if your molecule has a higher symmetry. Symmetry factor of 1.0 is
      used for the rotational entropy correction.

Note: Rotational entropy computed according to Herzberg
Infrared and Raman Spectra, Chapter V,1, Van Nostrand Reinhold, 1945
Point Group:  C1, Symmetry Number:   1
Rotational constants in cm-1:     0.054601     0.014379     0.012174

Vibrational entropy computed according to the QRRHO of S. Grimme
Chem.Eur.J. 2012 18 9955 using a reference frequency of 100.0 cm-1

-------
ENTROPY
-------

The entropy contributions are T*S = T*(S(el)+S(vib)+S(rot)+S(trans))
     S(el)   - electronic entropy
     S(vib)  - vibrational entropy
     S(rot)  - rotational entropy
     S(trans)- translational entropy
The entropies will be listed as multiplied by the temperature to get
units of energy

                             ****ORCA TERMINATED NORMALLY****
TOTAL RUN TIME: 0 days 3 hours 21 minutes 42 seconds 422 msec
