                         Program Version 6.0.0  -   RELEASE  -
|  1> !B3LYP aug-cc-pVTZ d3 TightSCF SlowConv RIJCOSX defgrid2
|  2>
|  3> %pal
|  4> nprocs 4
|  5> end
|  6>
|  7> %scf
|  8> MaxIter 1500
|  9> end
| 10>
| 11> %maxcore 3000
| 12>
| 13> !CPCM
| 14> %cpcm smd true
| 15> SMDsolvent "MeCN"
| 16> surfacetype gepol_ses
| 17> rsolv 2.19
| 18> end
| 19>
| 20> * xyz 0 1
| 21> C           1.57085042838004     -1.17474438788844     -0.33321365208336
| 22> C           2.96192041551293     -1.15651629940685     -0.31860147015010
| 23> C           3.64782695539498      0.00855864334947      0.02599003748590
| 24> C           2.92361947907694      1.15458909719340      0.34785674698480
| 25> C           1.53060388669529      1.13435322432905      0.32993520415109
| 26> C           0.82328467622844     -0.03397612396155      0.00340161993556
| 27> C          -0.65741272614693     -0.04733327290659      0.00534536563332
| 28> C          -1.35282390658214     -1.16758358658154      0.27962064543062
| 29> C          -2.84853700806778     -1.25828591796901      0.30847424531628
| 30> C          -3.51990150406660      0.11087068594057      0.31565142940002
| 31> C          -2.83381225328130      1.04341808051259     -0.67327419385531
| 32> C          -1.37142433850592      1.25026584913834     -0.29589644947955
| 33> H          -0.83991530281643      1.78116962585690     -1.10618334228773
| 34> H          -1.30989672858064      1.91765444185113      0.58676465237026
| 35> H          -3.35148405171204      2.01729252554914     -0.71973408682922
| 36> H          -2.89053837289839      0.60490265207129     -1.68762863260766
| 37> H          -4.59471066896096      0.01138665951998      0.08467603040594
| 38> H          -3.45292200027469      0.54772553729573      1.33001780873961
| 39> H          -3.19002868806132     -1.84280149491509     -0.57088642583127
| 40> H          -3.16602339134086     -1.84941487747488      1.18737448619474
| 41> H          -0.80474635256816     -2.08768769328037      0.51396987653596
| 42> H           0.98362946668811      2.04390039060663      0.59144870231404
| 43> H           3.44740931149543      2.07717728450666      0.61616083395012
| 44> H           4.74164950120465      0.02477698912015      0.03349122220482
| 45> H           3.51725863806072     -2.05891161890825     -0.59221005705267
| 46> H           1.04979053512663     -2.08648421354846     -0.63790469687620
| 47> *
| 48>
| 49>                          ****END OF INPUT****

CARTESIAN COORDINATES (ANGSTROEM)
---------------------------------
  C      1.570850   -1.174744   -0.333214
  C      2.961920   -1.156516   -0.318601
  C      3.647827    0.008559    0.025990
  C      2.923619    1.154589    0.347857
  C      1.530604    1.134353    0.329935
  C      0.823285   -0.033976    0.003402
  C     -0.657413   -0.047333    0.005345
  C     -1.352824   -1.167584    0.279621
  C     -2.848537   -1.258286    0.308474
  C     -3.519902    0.110871    0.315651
  C     -2.833812    1.043418   -0.673274
  C     -1.371424    1.250266   -0.295896
  H     -0.839915    1.781170   -1.106183
  H     -1.309897    1.917654    0.586765
  H     -3.351484    2.017293   -0.719734
  H     -2.890538    0.604903   -1.687629
  H     -4.594711    0.011387    0.084676
  H     -3.452922    0.547726    1.330018
  H     -3.190029   -1.842801   -0.570886
  H     -3.166023   -1.849415    1.187374
  H     -0.804746   -2.087688    0.513970
  H      0.983629    2.043900    0.591449
  H      3.447409    2.077177    0.616161
  H      4.741650    0.024777    0.033491
  H      3.517259   -2.058912   -0.592210
  H      1.049791   -2.086484   -0.637905

 Total Charge           Charge          ....    0
 Multiplicity           Mult            ....    1
 Number of Electrons    NEL             ....   86
 Basis Dimension        Dim             ....  874

ORBITAL ENERGIES
----------------

  NO   OCC          E(Eh)            E(eV)
   0   2.0000     -10.183510      -277.1074
   1   2.0000     -10.173746      -276.8417
   2   2.0000     -10.173693      -276.8403
   3   2.0000     -10.173633      -276.8386
   4   2.0000     -10.172016      -276.7946
   5   2.0000     -10.171860      -276.7904
   6   2.0000     -10.171785      -276.7883
   7   2.0000     -10.163763      -276.5701
   8   2.0000     -10.163453      -276.5616
   9   2.0000     -10.163439      -276.5612
  10   2.0000     -10.158421      -276.4247
  11   2.0000     -10.157848      -276.4091
  12   2.0000      -0.860201       -23.4073
  13   2.0000      -0.828273       -22.5384
  14   2.0000      -0.768596       -20.9146
  15   2.0000      -0.744162       -20.2497
  16   2.0000      -0.732516       -19.9328
  17   2.0000      -0.712247       -19.3812
  18   2.0000      -0.622410       -16.9366
  19   2.0000      -0.613004       -16.6807
  20   2.0000      -0.586567       -15.9613
  21   2.0000      -0.573487       -15.6054
  22   2.0000      -0.519577       -14.1384
  23   2.0000      -0.501122       -13.6362
  24   2.0000      -0.470298       -12.7975
  25   2.0000      -0.451658       -12.2902
  26   2.0000      -0.446744       -12.1565
  27   2.0000      -0.427908       -11.6440
  28   2.0000      -0.418389       -11.3849
  29   2.0000      -0.413491       -11.2517
  30   2.0000      -0.405640       -11.0380
  31   2.0000      -0.390265       -10.6197
  32   2.0000      -0.379881       -10.3371
  33   2.0000      -0.370582       -10.0840
  34   2.0000      -0.362313        -9.8590
  35   2.0000      -0.345623        -9.4049
  36   2.0000      -0.337520        -9.1844
  37   2.0000      -0.318284        -8.6609
  38   2.0000      -0.308979        -8.4077
  39   2.0000      -0.300288        -8.1712
  40   2.0000      -0.275742        -7.5033
  41   2.0000      -0.255206        -6.9445
  42   2.0000      -0.218294        -5.9401
  43   0.0000      -0.030924        -0.8415
  44   0.0000      -0.012890        -0.3508
  45   0.0000      -0.004011        -0.1091
  46   0.0000       0.005084         0.1383
  47   0.0000       0.010677         0.2905

MULLIKEN ATOMIC CHARGES
-----------------------
   0 C :   -0.944001
   1 C :   -0.873564
   2 C :   -0.142546
   3 C :   -0.944880
   4 C :   -0.855577
   5 C :    2.039096
   6 C :    1.667532
   7 C :   -1.128952
   8 C :   -0.191498
   9 C :   -0.307696
  10 C :   -0.532321
  11 C :   -0.234484
  12 H :    0.210321
  13 H :    0.179880
  14 H :    0.148118
  15 H :    0.145847
  16 H :    0.194314
  17 H :    0.153334
  18 H :    0.151914
  19 H :    0.186418
  20 H :   -0.086017
  21 H :   -0.108771
  22 H :    0.456155
  23 H :    0.465253
  24 H :    0.497435
  25 H :   -0.145309
Sum of atomic charges:   -0.0000000

LOEWDIN ATOMIC CHARGES
----------------------
   0 C :    0.200849
   1 C :    0.185729
   2 C :    0.177192
   3 C :    0.186429
   4 C :    0.203385
   5 C :   -0.122009
   6 C :   -0.080617
   7 C :    0.252014
   8 C :    0.260956
   9 C :    0.265552
  10 C :    0.271337
  11 C :    0.257706
  12 H :   -0.129342
  13 H :   -0.126953
  14 H :   -0.126402
  15 H :   -0.123783
  16 H :   -0.128296
  17 H :   -0.126249
  18 H :   -0.129176
  19 H :   -0.135482
  20 H :   -0.171248
  21 H :   -0.176068
  22 H :   -0.169000
  23 H :   -0.172215
  24 H :   -0.169231
  25 H :   -0.175082

  Mayer bond orders larger than 0.100000
B(  0-C ,  1-C ) :   1.2520 B(  0-C ,  2-C ) :  -0.2130 B(  0-C ,  3-C ) :   0.1405
B(  0-C ,  4-C ) :  -0.8243 B(  0-C ,  5-C ) :   0.1042 B(  0-C ,  6-C ) :   0.3928
B(  0-C , 21-H ) :   0.1388 B(  0-C , 24-H ) :  -0.1349 B(  0-C , 25-H ) :   1.8572
B(  1-C ,  2-C ) :   1.1791 B(  1-C ,  3-C ) :   0.3121 B(  1-C ,  4-C ) :   0.1478
B(  1-C ,  6-C ) :  -0.1471 B(  1-C , 21-H ) :  -0.1620 B(  1-C , 23-H ) :  -0.1206
B(  1-C , 24-H ) :   0.4914 B(  2-C ,  3-C ) :   1.1931 B(  2-C ,  4-C ) :  -0.1990
B(  2-C ,  5-C ) :  -0.1824 B(  2-C ,  6-C ) :   0.3181 B(  2-C , 21-H ) :  -0.1022
B(  2-C , 23-H ) :   0.6477 B(  3-C ,  4-C ) :   1.1030 B(  3-C ,  5-C ) :  -0.1263
B(  3-C , 21-H ) :  -0.1051 B(  3-C , 22-H ) :   0.5489 B(  3-C , 23-H ) :  -0.1012
B(  3-C , 25-H ) :  -0.1038 B(  4-C ,  6-C ) :   0.3006 B(  4-C ,  7-C ) :   0.1202
B(  4-C , 21-H ) :   1.8857 B(  4-C , 22-H ) :  -0.1557 B(  5-C ,  6-C ) :  -0.3389
B(  5-C ,  7-C ) :   0.4305 B(  5-C , 21-H ) :  -0.2452 B(  5-C , 22-H ) :   0.1980
B(  5-C , 24-H ) :   0.1529 B(  5-C , 25-H ) :  -0.2878 B(  6-C ,  7-C ) :   0.2334
B(  6-C ,  9-C ) :  -0.1030 B(  6-C , 11-C ) :   0.6680 B(  6-C , 12-H ) :  -0.1031
B(  6-C , 20-H ) :  -0.4270 B(  6-C , 21-H ) :  -0.2890 B(  6-C , 25-H ) :  -0.2504
B(  7-C ,  8-C ) :   0.6662 B(  7-C ,  9-C ) :   0.1037 B(  7-C , 11-C ) :  -0.1374
B(  7-C , 19-H ) :  -0.1457 B(  7-C , 20-H ) :   1.6165 B(  7-C , 25-H ) :   0.1001
B(  8-C ,  9-C ) :   0.9624 B(  8-C , 18-H ) :   1.0264 B(  8-C , 19-H ) :   0.9958
B(  8-C , 20-H ) :  -0.1247 B(  9-C , 10-C ) :   0.9704 B(  9-C , 16-H ) :   0.9584
B(  9-C , 17-H ) :   1.0093 B( 10-C , 11-C ) :   0.9558 B( 10-C , 14-H ) :   0.9896
B( 10-C , 15-H ) :   1.0339 B( 11-C , 12-H ) :   0.9552 B( 11-C , 13-H ) :   1.0152
B( 21-H , 25-H ) :   0.2658

Dispersion correction           -0.050003150
FINAL SINGLE POINT ENERGY      -465.617215769195

DIPOLE MOMENT
-------------

Method             : SCF
Type of density    : Electron Density
Multiplicity       :   1
Irrep              :   0
Energy             :  -465.5672126194241400 Eh
Relativity type    :
Basis              : AO
                                X                 Y                 Z
Electronic contribution:      8.893459940      -1.031684221       0.288681656
Nuclear contribution   :     -9.297439936       1.076513750      -0.312023061
                        -----------------------------------------
Total Dipole Moment    :     -0.403979996       0.044829529      -0.023341405
                        -----------------------------------------
Magnitude (a.u.)       :      0.407129396
Magnitude (Debye)      :      1.034840685

Rotational constants in cm-1:             0.085540             0.017249             0.015002
Rotational constants in MHz :          2564.428727           517.115238           449.743228

                             ****ORCA TERMINATED NORMALLY****
TOTAL RUN TIME: 0 days 0 hours 7 minutes 27 seconds 510 msec
