                         Program Version 6.0.0  -   RELEASE  -
|  1> !r2SCANh opt aug-cc-pVTZ d3 TightSCF SlowConv RIJCOSX defgrid2
|  2>
|  3> %pal
|  4> nprocs 8
|  5> end
|  6>
|  7> %scf
|  8> MaxIter 1500
|  9> end
| 10>
| 11> %maxcore 3500
| 12>
| 13> !CPCM
| 14> %cpcm smd true
| 15> SMDsolvent "MeCN"
| 16> surfacetype gepol_ses
| 17> rsolv 2.19
| 18> end
| 19>
| 20> * xyz 0 1
| 21>   C          -0.32929488413657      0.79958569403428      0.00044273535199
| 22>   C          -1.62064273901710      0.26512523742046     -0.00020576169036
| 23>   C          -1.80432551351291     -1.11702937985967      0.00040659700901
| 24>   C          -0.67721002406201     -1.94268452957353      0.00208797584013
| 25>   C           0.60475083946867     -1.41996105828678      0.00282182676021
| 26>   C           0.79623097182594     -0.02620793764457      0.00167680462721
| 27>   C           2.12003001414923      0.60623088110746      0.00195889667842
| 28>   C           3.30641276426241     -0.01400237289311     -0.00198378489099
| 29>   C           4.62380142061727      0.68911900588518     -0.00119207997422
| 30>   H           5.21449119138271      0.41087526655385     -0.88079707373311
| 31>   H           5.21822793733002      0.40102406633612      0.87271923920832
| 32>   H           4.50188721530458      1.77395550003908      0.00505557433799
| 33>   H           3.34867776156783     -1.10033674308372     -0.00638425570909
| 34>   H           2.10706040858269      1.69424506736667      0.00536777232973
| 35>   H           1.45418527737287     -2.09083281621199      0.00484806129512
| 36>   H          -0.81713692626644     -3.01746919504622      0.00321379625985
| 37>   H          -2.79302535743489     -1.55356575501186     -0.00063295864249
| 38>   O          -2.63724047795254      1.17280763041773     -0.00143754498251
| 39>   C          -3.97281153020014      0.65970820471451     -0.00151714938107
| 40>   H          -4.62235565773561      1.53218843498021     -0.00192511531647
| 41>   H          -4.16125459990047      0.06074074115443      0.89321910754182
| 42>   H          -4.16079480798000      0.06040695045440     -0.89606844083238
| 43>   H          -0.21249908366553      1.87744010714706     -0.00041962208710
| 44> *
| 45>
| 46>                          ****END OF INPUT****
 Total Charge           Charge          ....    0
 Multiplicity           Mult            ....    1
 Number of Electrons    NEL             ....   80
Dispersion correction           -0.007259123
FINAL SINGLE POINT ENERGY      -463.384124265130
Dispersion correction             ... done (  0.0 sec)
Dispersion correction           -0.007273993
FINAL SINGLE POINT ENERGY      -463.384353063664
Dispersion correction             ... done (  0.1 sec)
Dispersion correction           -0.007274971
FINAL SINGLE POINT ENERGY      -463.384371132965
Dispersion correction             ... done (  0.1 sec)
Dispersion correction           -0.007274315
FINAL SINGLE POINT ENERGY      -463.384376452392
Dispersion correction             ... done (  0.1 sec)
                    ***********************HURRAY********************

CARTESIAN COORDINATES (ANGSTROEM)
---------------------------------
  C     -0.329109    0.795661    0.001054
  C     -1.617734    0.262216   -0.000112
  C     -1.799368   -1.117071    0.000696
  C     -0.673714   -1.938590    0.003177
  C      0.604691   -1.416953    0.004420
  C      0.794717   -0.026226    0.002910
  C      2.114304    0.605004    0.003483
  C      3.298121   -0.012111   -0.003249
  C      4.608988    0.688116   -0.002111
  H      5.198879    0.411847   -0.879768
  H      5.204601    0.397344    0.866970
  H      4.489447    1.770696    0.007154
  H      3.340720   -1.096813   -0.010516
  H      2.102308    1.691653    0.009295
  H      1.452344   -2.087153    0.007388
  H     -0.812124   -3.011993    0.004658
  H     -2.785122   -1.555556   -0.000668
  O     -2.626791    1.164898   -0.001958
  C     -3.956274    0.662130   -0.002706
  H     -4.604552    1.532972   -0.003616
  H     -4.151642    0.064760    0.889293
  H     -4.150157    0.064131   -0.894549
  H     -0.215369    1.872401    0.000010

 Multiplicity           Mult            ....    1
 Number of Electrons    NEL             ....   80
 Basis Dimension        Dim             ....  782

ORBITAL ENERGIES
----------------

  NO   OCC          E(Eh)            E(eV)
   0   2.0000     -19.150166      -521.1025
   1   2.0000     -10.218684      -278.0645
   2   2.0000     -10.193899      -277.3901
   3   2.0000     -10.171522      -276.7812
   4   2.0000     -10.159188      -276.4456
   5   2.0000     -10.158197      -276.4186
   6   2.0000     -10.152370      -276.2600
   7   2.0000     -10.152196      -276.2553
   8   2.0000     -10.151528      -276.2371
   9   2.0000     -10.148899      -276.1656
  10   2.0000     -10.142333      -275.9869
  11   2.0000      -1.073330       -29.2068
  12   2.0000      -0.862024       -23.4569
  13   2.0000      -0.801411       -21.8075
  14   2.0000      -0.756294       -20.5798
  15   2.0000      -0.749745       -20.4016
  16   2.0000      -0.689796       -18.7703
  17   2.0000      -0.677120       -18.4254
  18   2.0000      -0.601477       -16.3670
  19   2.0000      -0.594896       -16.1880
  20   2.0000      -0.542811       -14.7706
  21   2.0000      -0.515748       -14.0342
  22   2.0000      -0.478254       -13.0139
  23   2.0000      -0.471410       -12.8277
  24   2.0000      -0.456683       -12.4270
  25   2.0000      -0.451031       -12.2732
  26   2.0000      -0.421792       -11.4775
  27   2.0000      -0.408172       -11.1069
  28   2.0000      -0.400472       -10.8974
  29   2.0000      -0.387777       -10.5519
  30   2.0000      -0.378190       -10.2911
  31   2.0000      -0.374085       -10.1794
  32   2.0000      -0.356946        -9.7130
  33   2.0000      -0.340879        -9.2758
  34   2.0000      -0.332203        -9.0397
  35   2.0000      -0.324743        -8.8367
  36   2.0000      -0.312987        -8.5168
  37   2.0000      -0.286310        -7.7909
  38   2.0000      -0.227233        -6.1833
  39   2.0000      -0.213057        -5.7976
  40   0.0000      -0.046794        -1.2733
  41   0.0000      -0.018050        -0.4912
  42   0.0000       0.010191         0.2773
  43   0.0000       0.020817         0.5665
  44   0.0000       0.023185         0.6309

MULLIKEN ATOMIC CHARGES
-----------------------
   0 C :   -1.172015
   1 C :    0.882293
   2 C :   -0.000645
   3 C :   -0.965248
   4 C :   -0.548094
   5 C :    2.035017
   6 C :   -0.144225
   7 C :   -0.222867
   8 C :   -0.838470
   9 H :    0.176433
  10 H :    0.178884
  11 H :    0.258394
  12 H :    0.084911
  13 H :   -0.106739
  14 H :    0.122442
  15 H :    0.470764
  16 H :    0.215439
  17 O :   -0.626328
  18 C :   -0.669628
  19 H :    0.240179
  20 H :    0.266217
  21 H :    0.266060
  22 H :    0.097226
Sum of atomic charges:   -0.0000000

LOEWDIN ATOMIC CHARGES
----------------------
   0 C :    0.209392
   1 C :   -0.404086
   2 C :    0.203818
   3 C :    0.190354
   4 C :    0.200835
   5 C :   -0.160011
   6 C :    0.206162
   7 C :    0.208674
   8 C :    0.567606
   9 H :   -0.170151
  10 H :   -0.170220
  11 H :   -0.179600
  12 H :   -0.189920
  13 H :   -0.190627
  14 H :   -0.196108
  15 H :   -0.176397
  16 H :   -0.202318
  17 O :    0.595854
  18 C :    0.356149
  19 H :   -0.178944
  20 H :   -0.171405
  21 H :   -0.171434
  22 H :   -0.177620

  Mayer bond orders larger than 0.100000
B(  0-C ,  1-C ) :   0.5430 B(  0-C ,  4-C ) :  -0.2947 B(  0-C ,  5-C ) :  -0.1469
B(  0-C ,  6-C ) :  -0.1957 B(  0-C ,  7-C ) :   0.2200 B(  0-C , 17-O ) :   0.3066
B(  0-C , 22-H ) :   1.2726 B(  1-C ,  2-C ) :   0.9983 B(  1-C ,  4-C ) :  -0.2396
B(  1-C , 17-O ) :   0.1849 B(  1-C , 18-C ) :   0.1189 B(  1-C , 22-H ) :  -0.1232
B(  2-C ,  3-C ) :   0.8376 B(  2-C , 16-H ) :   1.0695 B(  2-C , 17-O ) :  -0.2560
B(  2-C , 18-C ) :  -0.1883 B(  3-C ,  4-C ) :   0.8978 B(  3-C ,  5-C ) :  -0.1470
B(  3-C ,  6-C ) :   0.1145 B(  3-C ,  7-C ) :  -0.1397 B(  3-C , 14-H ) :  -0.1593
B(  3-C , 15-H ) :   0.4984 B(  3-C , 16-H ) :  -0.1014 B(  4-C ,  5-C ) :   0.2980
B(  4-C , 14-H ) :   1.1950 B(  5-C ,  7-C ) :  -0.1605 B(  5-C ,  8-C ) :   0.1220
B(  5-C , 12-H ) :  -0.2096 B(  5-C , 13-H ) :  -0.1353 B(  5-C , 14-H ) :  -0.1611
B(  5-C , 16-H ) :  -0.1018 B(  5-C , 17-O ) :   0.1329 B(  5-C , 22-H ) :  -0.1521
B(  6-C ,  7-C ) :   0.8764 B(  6-C , 13-H ) :   1.4323 B(  6-C , 22-H ) :  -0.1068
B(  7-C ,  8-C ) :   0.4816 B(  7-C , 12-H ) :   1.5137 B(  7-C , 13-H ) :  -0.1786
B(  8-C ,  9-H ) :   1.0688 B(  8-C , 10-H ) :   1.0664 B(  8-C , 11-H ) :   0.9475
B(  8-C , 12-H ) :  -0.1615 B( 16-H , 18-C ) :  -0.1571 B( 17-O , 18-C ) :   0.9960
B( 18-C , 19-H ) :   0.9754 B( 18-C , 20-H ) :   0.9292 B( 18-C , 21-H ) :   0.9300

Dispersion correction           -0.007273785
FINAL SINGLE POINT ENERGY      -463.384377280445

DIPOLE MOMENT
-------------

Method             : SCF
Type of density    : Electron Density
Multiplicity       :   1
Irrep              :   0
Energy             :  -463.3771034953085177 Eh
Relativity type    :
Basis              : AO
                                X                 Y                 Z
Electronic contribution:     -5.053586518      -0.357772520       0.006557608
Nuclear contribution   :      4.743488460       0.014797971      -0.008302262
                        -----------------------------------------
Total Dipole Moment    :     -0.310098058      -0.342974550      -0.001744654
                        -----------------------------------------
Magnitude (a.u.)       :      0.462380137
Magnitude (Debye)      :      1.175276907

Rotational constants in cm-1:             0.103834             0.017073             0.014742
Rotational constants in MHz :          3112.857099           511.822271           441.966506

                             ****ORCA TERMINATED NORMALLY****
TOTAL RUN TIME: 0 days 0 hours 27 minutes 14 seconds 885 msec
