                         Program Version 6.0.0  -   RELEASE  -
|  1> !TPSSh aug-cc-pVTZ d3 TightSCF SlowConv RIJCOSX defgrid2
|  2>
|  3> %pal
|  4> nprocs 4
|  5> end
|  6>
|  7> %scf
|  8> MaxIter 1500
|  9> end
| 10>
| 11> %maxcore 3000
| 12>
| 13> !CPCM
| 14> %cpcm smd true
| 15> SMDsolvent "MeCN"
| 16> surfacetype gepol_ses
| 17> rsolv 2.19
| 18> end
| 19>
| 20> * xyz 0 1
| 21> C          -0.09723520138673     -1.03437639103764      0.00347054225631
| 22> C          -1.47492894930884     -1.20047361725562      0.00696317861110
| 23> C          -2.34578623174672     -0.10040313113454      0.00646178626940
| 24> C          -1.77456389354337      1.17444029815347      0.00609068858276
| 25> C          -0.39219290951861      1.34431389323203      0.00262007400835
| 26> C           0.48066721969256      0.24734111354836      0.00061801253520
| 27> C           1.92745712323043      0.48416048286104     -0.00147397271183
| 28> C           2.90821751377421     -0.43224406598278     -0.00115903608211
| 29> C           4.36623513102305     -0.11505487673646     -0.00400250033420
| 30> H           4.87200794201926     -0.54390247209158      0.88189528271805
| 31> H           4.86926753302145     -0.54728733840504     -0.88981811387895
| 32> H           4.54542156577808      0.97343112133202     -0.00638255069427
| 33> H           2.64848728832259     -1.49940771664298      0.00136069468406
| 34> H           2.21863839458192      1.54365509753515     -0.00378021817366
| 35> H           0.02556550649537      2.35646498548500      0.00378810560732
| 36> H          -2.42480036039019      2.05550589684769      0.01005021755173
| 37> C          -3.83450513941386     -0.29675754696210     -0.01137750175061
| 38> H          -4.36818359568584      0.64375253893058      0.20246833077396
| 39> H          -4.17808733966479     -0.65741939040861     -0.99869388532750
| 40> H          -4.15169482101390     -1.04597884024218      0.73497377180135
| 41> H          -1.89116416828829     -2.21365122416981      0.01168808196327
| 42> H           0.54303149202221     -1.92102021685601      0.00533651159029
| 43> *
| 44>
| 45>                          ****END OF INPUT****

CARTESIAN COORDINATES (ANGSTROEM)
---------------------------------
  C     -0.097235   -1.034376    0.003471
  C     -1.474929   -1.200474    0.006963
  C     -2.345786   -0.100403    0.006462
  C     -1.774564    1.174440    0.006091
  C     -0.392193    1.344314    0.002620
  C      0.480667    0.247341    0.000618
  C      1.927457    0.484160   -0.001474
  C      2.908218   -0.432244   -0.001159
  C      4.366235   -0.115055   -0.004003
  H      4.872008   -0.543902    0.881895
  H      4.869268   -0.547287   -0.889818
  H      4.545422    0.973431   -0.006383
  H      2.648487   -1.499408    0.001361
  H      2.218638    1.543655   -0.003780
  H      0.025566    2.356465    0.003788
  H     -2.424800    2.055506    0.010050
  C     -3.834505   -0.296758   -0.011378
  H     -4.368184    0.643753    0.202468
  H     -4.178087   -0.657419   -0.998694
  H     -4.151695   -1.045979    0.734974
  H     -1.891164   -2.213651    0.011688
  H      0.543031   -1.921020    0.005337

 Total Charge           Charge          ....    0
 Multiplicity           Mult            ....    1
 Number of Electrons    NEL             ....   72
 Basis Dimension        Dim             ....  736

ORBITAL ENERGIES
----------------

  NO   OCC          E(Eh)            E(eV)
   0   2.0000     -10.122799      -275.4554
   1   2.0000     -10.121893      -275.4307
   2   2.0000     -10.114548      -275.2308
   3   2.0000     -10.114233      -275.2223
   4   2.0000     -10.113595      -275.2049
   5   2.0000     -10.112505      -275.1752
   6   2.0000     -10.111827      -275.1568
   7   2.0000     -10.110973      -275.1336
   8   2.0000     -10.106602      -275.0146
   9   2.0000     -10.106101      -275.0010
  10   2.0000      -0.839681       -22.8489
  11   2.0000      -0.782050       -21.2807
  12   2.0000      -0.742883       -20.2149
  13   2.0000      -0.723210       -19.6796
  14   2.0000      -0.683717       -18.6049
  15   2.0000      -0.636343       -17.3158
  16   2.0000      -0.589765       -16.0483
  17   2.0000      -0.563947       -15.3458
  18   2.0000      -0.527400       -14.3513
  19   2.0000      -0.482277       -13.1234
  20   2.0000      -0.445822       -12.1314
  21   2.0000      -0.433883       -11.8066
  22   2.0000      -0.409879       -11.1534
  23   2.0000      -0.398508       -10.8440
  24   2.0000      -0.394918       -10.7463
  25   2.0000      -0.390773       -10.6335
  26   2.0000      -0.389833       -10.6079
  27   2.0000      -0.358245        -9.7484
  28   2.0000      -0.355894        -9.6844
  29   2.0000      -0.351462        -9.5638
  30   2.0000      -0.332692        -9.0530
  31   2.0000      -0.319653        -8.6982
  32   2.0000      -0.310438        -8.4474
  33   2.0000      -0.276748        -7.5307
  34   2.0000      -0.245267        -6.6741
  35   2.0000      -0.205992        -5.6053
  36   0.0000      -0.047207        -1.2846
  37   0.0000      -0.024032        -0.6540
  38   0.0000      -0.002296        -0.0625
  39   0.0000       0.005198         0.1414
  40   0.0000       0.010969         0.2985

MULLIKEN ATOMIC CHARGES
-----------------------
   0 C :   -0.598263
   1 C :   -0.906555
   2 C :    0.880909
   3 C :   -0.662114
   4 C :   -0.732587
   5 C :    1.751461
   6 C :    0.085183
   7 C :   -0.296111
   8 C :   -0.402299
   9 H :    0.121690
  10 H :    0.118606
  11 H :    0.131817
  12 H :    0.141230
  13 H :    0.000701
  14 H :    0.072844
  15 H :    0.158589
  16 C :   -0.269326
  17 H :    0.109930
  18 H :    0.150006
  19 H :    0.129585
  20 H :    0.146404
  21 H :   -0.131703
Sum of atomic charges:    0.0000000

LOEWDIN ATOMIC CHARGES
----------------------
   0 C :    0.205676
   1 C :    0.210245
   2 C :   -0.143113
   3 C :    0.209514
   4 C :    0.200220
   5 C :   -0.153431
   6 C :    0.196423
   7 C :    0.197066
   8 C :    0.546590
   9 H :   -0.165108
  10 H :   -0.165082
  11 H :   -0.174543
  12 H :   -0.184786
  13 H :   -0.185087
  14 H :   -0.168766
  15 H :   -0.167671
  16 C :    0.569415
  17 H :   -0.169838
  18 H :   -0.153901
  19 H :   -0.160300
  20 H :   -0.161906
  21 H :   -0.181617

  Mayer bond orders larger than 0.100000
B(  0-C ,  1-C ) :   1.3127 B(  0-C ,  4-C ) :  -0.4711 B(  0-C ,  5-C ) :   0.4620
B(  0-C ,  6-C ) :   0.1362 B(  0-C ,  7-C ) :   0.1551 B(  0-C , 21-H ) :   1.4054
B(  1-C ,  2-C ) :   0.9362 B(  1-C ,  5-C ) :  -0.1237 B(  1-C , 20-H ) :   0.9146
B(  2-C ,  3-C ) :   0.8807 B(  2-C ,  5-C ) :  -0.1166 B(  2-C ,  6-C ) :   0.1409
B(  2-C , 16-C ) :   0.6545 B(  3-C ,  4-C ) :   1.5695 B(  3-C ,  5-C ) :  -0.1425
B(  3-C , 15-H ) :   0.9004 B(  3-C , 16-C ) :  -0.1152 B(  4-C ,  5-C ) :   0.1782
B(  4-C , 14-H ) :   1.1545 B(  5-C ,  6-C ) :   0.2851 B(  5-C ,  7-C ) :  -0.2298
B(  5-C , 12-H ) :  -0.1208 B(  6-C ,  7-C ) :   1.0594 B(  6-C , 13-H ) :   1.1094
B(  6-C , 14-H ) :  -0.1009 B(  7-C ,  8-C ) :   1.0377 B(  7-C , 11-H ) :   0.1104
B(  7-C , 12-H ) :   1.1481 B(  8-C ,  9-H ) :   0.9851 B(  8-C , 10-H ) :   0.9867
B(  8-C , 11-H ) :   0.9296 B( 16-C , 17-H ) :   0.9632 B( 16-C , 18-H ) :   0.9873
B( 16-C , 19-H ) :   0.9890

Dispersion correction           -0.025426770
FINAL SINGLE POINT ENERGY      -388.483658007434

DIPOLE MOMENT
-------------

Method             : SCF
Type of density    : Electron Density
Multiplicity       :   1
Irrep              :   0
Energy             :  -388.4582312378037727 Eh
Relativity type    :
Basis              : AO
                                X                 Y                 Z
Electronic contribution:     -2.553285620       0.668397838       0.032002725
Nuclear contribution   :      2.550584305      -0.802045271      -0.048555466
                        -----------------------------------------
Total Dipole Moment    :     -0.002701315      -0.133647433      -0.016552741
                        -----------------------------------------
Magnitude (a.u.)       :      0.134695681
Magnitude (Debye)      :      0.342369214

Rotational constants in cm-1:             0.159882             0.020202             0.018058
Rotational constants in MHz :          4793.148645           605.632668           541.352924

                             ****ORCA TERMINATED NORMALLY****
TOTAL RUN TIME: 0 days 0 hours 7 minutes 41 seconds 801 msec
