                         Program Version 6.0.0  -   RELEASE  -
|  1> !PBE0 freq aug-cc-pVTZ d3 TightSCF SlowConv RIJCOSX defgrid2
|  2>
|  3> %pal
|  4> nprocs 12
|  5> end
|  6>
|  7> %scf
|  8> MaxIter 1500
|  9> end
| 10>
| 11> %maxcore 5000
| 12>
| 13> !CPCM
| 14> %cpcm smd true
| 15> SMDsolvent "MeCN"
| 16> surfacetype gepol_ses
| 17> rsolv 2.19
| 18> end
| 19>
| 20> * xyz 0 1
| 21> C           0.89620802936388     -1.41157534581451     -0.00038493274979
| 22> C           2.10867959995200     -0.73992411384475      0.00002207670956
| 23> C           2.16630217567363      0.65898720343067     -0.00009095072824
| 24> C           1.01613961377696      1.42811443752859     -0.00047394801143
| 25> C          -0.21662286617131      0.77402245033705     -0.00069107676109
| 26> C          -0.23958950902736     -0.62478418745568     -0.00076531603134
| 27> O          -1.52173270750785     -1.07308373877287     -0.00055723894345
| 28> C          -2.31280414555828      0.03689497590328     -0.00005999770292
| 29> C          -1.59511338957137      1.17760109405023     -0.00025170756511
| 30> H          -1.99189743512158      2.18034130968285      0.00095683095559
| 31> H          -3.37441484282367     -0.15148245209752      0.00115033402030
| 32> H           1.07159325442371      2.50993907269932     -0.00048065491815
| 33> H           3.13402353489758      1.14587929652156      0.00059940345998
| 34> H           3.02991713867636     -1.30947786847742      0.00116886771757
| 35> H           0.83836164901730     -2.49247583369078     -0.00005688945151
| 36> *
| 37>
| 38>                          ****END OF INPUT****

CARTESIAN COORDINATES (ANGSTROEM)
---------------------------------
  C      0.896208   -1.411575   -0.000385
  C      2.108680   -0.739924    0.000022
  C      2.166302    0.658987   -0.000091
  C      1.016140    1.428114   -0.000474
  C     -0.216623    0.774022   -0.000691
  C     -0.239590   -0.624784   -0.000765
  O     -1.521733   -1.073084   -0.000557
  C     -2.312804    0.036895   -0.000060
  C     -1.595113    1.177601   -0.000252
  H     -1.991897    2.180341    0.000957
  H     -3.374415   -0.151482    0.001150
  H      1.071593    2.509939   -0.000481
  H      3.134024    1.145879    0.000599
  H      3.029917   -1.309478    0.001169
  H      0.838362   -2.492476   -0.000057

 Total Charge           Charge          ....    0
 Multiplicity           Mult            ....    1
 Number of Electrons    NEL             ....   62
 Basis Dimension        Dim             ....  552

ORBITAL ENERGIES
----------------

  NO   OCC          E(Eh)            E(eV)
   0   2.0000     -19.280341      -524.6448
   1   2.0000     -10.284015      -279.8423
   2   2.0000     -10.282630      -279.8046
   3   2.0000     -10.238259      -278.5972
   4   2.0000     -10.233532      -278.4686
   5   2.0000     -10.232033      -278.4278
   6   2.0000     -10.230016      -278.3729
   7   2.0000     -10.227581      -278.3066
   8   2.0000     -10.226263      -278.2708
   9   2.0000      -1.149744       -31.2861
  10   2.0000      -0.889664       -24.2090
  11   2.0000      -0.829154       -22.5624
  12   2.0000      -0.776824       -21.1385
  13   2.0000      -0.755457       -20.5570
  14   2.0000      -0.655981       -17.8501
  15   2.0000      -0.622558       -16.9407
  16   2.0000      -0.605104       -16.4657
  17   2.0000      -0.540346       -14.7036
  18   2.0000      -0.510615       -13.8945
  19   2.0000      -0.494860       -13.4658
  20   2.0000      -0.484450       -13.1826
  21   2.0000      -0.453693       -12.3456
  22   2.0000      -0.439402       -11.9567
  23   2.0000      -0.420188       -11.4339
  24   2.0000      -0.403897       -10.9906
  25   2.0000      -0.376860       -10.2549
  26   2.0000      -0.376366       -10.2414
  27   2.0000      -0.351902        -9.5758
  28   2.0000      -0.315308        -8.5800
  29   2.0000      -0.258301        -7.0287
  30   2.0000      -0.239573        -6.5191
  31   0.0000      -0.026181        -0.7124
  32   0.0000       0.003696         0.1006
  33   0.0000       0.004107         0.1117
  34   0.0000       0.014954         0.4069
  35   0.0000       0.018481         0.5029

MULLIKEN ATOMIC CHARGES
-----------------------
   0 C :   -1.102683
   1 C :   -0.303227
   2 C :   -0.652226
   3 C :   -0.667963
   4 C :    0.922489
   5 C :    0.293575
   6 O :   -0.512896
   7 C :   -0.495057
   8 C :   -0.723001
   9 H :    0.474502
  10 H :    0.645980
  11 H :    0.193564
  12 H :    0.731306
  13 H :    0.474801
  14 H :    0.720837
Sum of atomic charges:   -0.0000000

LOEWDIN ATOMIC CHARGES
----------------------
   0 C :    0.221765
   1 C :    0.177110
   2 C :    0.178313
   3 C :    0.216527
   4 C :   -0.170291
   5 C :   -0.408946
   6 O :    0.622530
   7 C :   -0.015272
   8 C :    0.222458
   9 H :   -0.172038
  10 H :   -0.175987
  11 H :   -0.168038
  12 H :   -0.181182
  13 H :   -0.179223
  14 H :   -0.167725

  Mayer bond orders larger than 0.100000
B(  0-C ,  1-C ) :   1.4591 B(  0-C ,  2-C ) :   0.3867 B(  0-C ,  4-C ) :   0.1928
B(  0-C ,  5-C ) :   1.1822 B(  0-C ,  6-O ) :   0.1376 B(  1-C ,  2-C ) :   1.2687
B(  1-C ,  3-C ) :  -0.3788 B(  1-C ,  5-C ) :  -0.6404 B(  1-C ,  8-C ) :   0.1058
B(  1-C , 12-H ) :   0.1628 B(  1-C , 13-H ) :   0.6347 B(  1-C , 14-H ) :   0.1708
B(  2-C ,  3-C ) :   1.1995 B(  2-C ,  5-C ) :   0.1989 B(  2-C ,  8-C ) :   0.1847
B(  2-C , 12-H ) :   0.1378 B(  2-C , 13-H ) :  -0.1065 B(  3-C ,  4-C ) :   0.8358
B(  3-C ,  5-C ) :  -0.6953 B(  3-C ,  9-H ) :   0.1369 B(  3-C , 11-H ) :   1.2840
B(  3-C , 12-H ) :  -0.1347 B(  3-C , 14-H ) :   0.1363 B(  4-C ,  5-C ) :   1.2747
B(  4-C ,  6-O ) :  -0.1016 B(  4-C ,  7-C ) :  -0.3380 B(  4-C ,  8-C ) :   0.6109
B(  4-C , 13-H ) :  -0.1422 B(  5-C ,  6-O ) :   0.5529 B(  5-C ,  8-C ) :   0.2207
B(  5-C , 11-H ) :   0.1488 B(  5-C , 13-H ) :   0.1609 B(  6-O ,  7-C ) :   1.2614
B(  7-C ,  8-C ) :   1.3538 B(  7-C , 10-H ) :   0.4920 B(  8-C ,  9-H ) :   0.6998
B(  8-C , 11-H ) :  -0.1012

Dispersion correction           -0.013729876
FINAL SINGLE POINT ENERGY      -383.387057543279

DIPOLE MOMENT
-------------

Method             : SCF
Type of density    : Electron Density
Multiplicity       :   1
Irrep              :   0
Energy             :  -383.3733276673980299 Eh
Relativity type    :
Basis              : AO
                                X                 Y                 Z
Electronic contribution:     -2.686250922      -1.395472989      -0.002516842
Nuclear contribution   :      2.504237297       1.734411594       0.004935406
                        -----------------------------------------
Total Dipole Moment    :     -0.182013625       0.338938605       0.002418564
                        -----------------------------------------
Magnitude (a.u.)       :      0.384726120
Magnitude (Debye)      :      0.977896082

VIBRATIONAL FREQUENCIES
-----------------------

Scaling factor for frequencies =  1.000000000  (already applied!)

     0:       0.00 cm**-1
     1:       0.00 cm**-1
     2:       0.00 cm**-1
     3:       0.00 cm**-1
     4:       0.00 cm**-1
     5:       0.00 cm**-1
     6:     217.27 cm**-1
     7:     252.23 cm**-1
     8:     403.94 cm**-1
     9:     430.54 cm**-1
    10:     545.17 cm**-1
    11:     587.17 cm**-1
    12:     603.37 cm**-1
    13:     617.27 cm**-1
    14:     753.18 cm**-1
    15:     765.76 cm**-1
    16:     782.24 cm**-1
    17:     795.01 cm**-1
    18:     874.24 cm**-1
    19:     878.20 cm**-1
    20:     897.23 cm**-1
    21:     912.45 cm**-1
    22:     961.86 cm**-1
    23:    1001.99 cm**-1
    24:    1032.32 cm**-1
    25:    1060.58 cm**-1
    26:    1117.41 cm**-1
    27:    1147.16 cm**-1
    28:    1161.84 cm**-1
    29:    1201.67 cm**-1
    30:    1282.41 cm**-1
    31:    1294.05 cm**-1
    32:    1365.12 cm**-1
    33:    1407.53 cm**-1
    34:    1486.82 cm**-1
    35:    1509.98 cm**-1
    36:    1589.55 cm**-1
    37:    1647.88 cm**-1
    38:    1675.58 cm**-1
    39:    3188.10 cm**-1
    40:    3198.44 cm**-1
    41:    3208.01 cm**-1
    42:    3216.95 cm**-1
    43:    3259.02 cm**-1
    44:    3282.92 cm**-1

IR SPECTRUM
-----------

 Mode   freq       eps      Int      T**2         TX        TY        TZ
       cm**-1   L/(mol*cm) km/mol    a.u.
----------------------------------------------------------------------------
  6:    217.27   0.002466   12.46  0.003542  (-0.000114 -0.000020  0.059512)
  7:    252.23   0.000058    0.29  0.000072  ( 0.000023 -0.000073  0.008494)
  8:    403.94   0.002248   11.36  0.001737  (-0.020828 -0.036094 -0.000005)
  9:    430.54   0.003534   17.86  0.002561  ( 0.000093 -0.000035 -0.050609)
 10:    545.17   0.000164    0.83  0.000094  ( 0.008153  0.005224  0.000082)
 11:    587.17   0.000042    0.21  0.000022  (-0.000096  0.000005  0.004741)
 12:    603.37   0.000001    0.00  0.000000  ( 0.000177  0.000134 -0.000571)
 13:    617.27   0.000561    2.84  0.000284  ( 0.016297 -0.004274 -0.000032)
 14:    753.18   0.000004    0.02  0.000002  ( 0.000126  0.000020  0.001231)
 15:    765.76   0.045937  232.15  0.018721  ( 0.000300 -0.000115 -0.136823)
 16:    782.24   0.002786   14.08  0.001112  ( 0.030293 -0.013891  0.000966)
 17:    795.01   0.004141   20.93  0.001625  ( 0.000018  0.000016  0.040317)
 18:    874.24   0.003288   16.61  0.001173  ( 0.019928  0.027862 -0.000299)
 19:    878.20   0.000150    0.76  0.000053  (-0.000284 -0.000532 -0.007282)
 20:    897.23   0.000147    0.74  0.000051  ( 0.000209  0.000200  0.007144)
 21:    912.45   0.001054    5.32  0.000360  (-0.008373  0.017037 -0.000014)
 22:    961.86   0.001045    5.28  0.000339  ( 0.000161 -0.000141 -0.018415)
 23:   1001.99   0.000007    0.04  0.000002  ( 0.000012  0.000257 -0.001469)
 24:   1032.32   0.003693   18.66  0.001116  (-0.032639  0.007134 -0.000164)
 25:   1060.58   0.005031   25.42  0.001480  (-0.008883 -0.037435 -0.000027)
 26:   1117.41   0.005076   25.65  0.001418  (-0.015264 -0.034418  0.000064)
 27:   1147.16   0.003317   16.76  0.000902  (-0.005011  0.029617 -0.000046)
 28:   1161.84   0.006083   30.74  0.001634  (-0.007722  0.039675 -0.000066)
 29:   1201.67   0.009128   46.13  0.002370  ( 0.038861 -0.029331 -0.000021)
 30:   1282.41   0.000430    2.18  0.000105  ( 0.007817 -0.006606 -0.000029)
 31:   1294.05   0.016672   84.25  0.004021  (-0.063180  0.005376 -0.000008)
 32:   1365.12   0.002894   14.63  0.000662  (-0.019211 -0.017105  0.000005)
 33:   1407.53   0.000661    3.34  0.000146  ( 0.011190 -0.004606  0.000003)
 34:   1486.82   0.015969   80.70  0.003352  (-0.053411 -0.022336  0.000002)
 35:   1509.98   0.001492    7.54  0.000308  ( 0.011249 -0.013480  0.000015)
 36:   1589.55   0.007250   36.64  0.001423  (-0.003114 -0.037597  0.000077)
 37:   1647.88   0.000090    0.45  0.000017  (-0.002590  0.003208  0.000014)
 38:   1675.58   0.000050    0.25  0.000009  (-0.003043 -0.000179 -0.000006)
 39:   3188.10   0.000360    1.82  0.000035  (-0.005279 -0.002713 -0.000006)
 40:   3198.44   0.002188   11.06  0.000214  (-0.009322  0.011252  0.000065)
 41:   3208.01   0.004052   20.48  0.000394  ( 0.013400  0.014649 -0.000021)
 42:   3216.95   0.001172    5.92  0.000114  (-0.008736  0.006116  0.000049)
 43:   3259.02   0.000651    3.29  0.000062  ( 0.007453  0.002605  0.000045)
 44:   3282.92   0.000018    0.09  0.000002  (-0.001251 -0.000406  0.000088)

--------------------------
THERMOCHEMISTRY AT 298.15K
--------------------------

Temperature         ...   298.15 K
Pressure            ...     1.00 atm
Total Mass          ...   118.13 AMU
Quasi RRHO          ...     True
Cut-Off Frequency   ...     1.00 cm^-1

Throughout the following assumptions are being made:
  (1) The electronic state is orbitally nondegenerate
  (2) There are no thermally accessible electronically excited states
  (3) Hindered rotations indicated by low frequency modes are not
      treated as such but are treated as vibrations and this may
      cause some error
  (4) All equations used are the standard statistical mechanics
      equations for an ideal gas
  (5) All vibrations are strictly harmonic

freq.     217.27  E(vib)   ...       0.34
freq.     252.23  E(vib)   ...       0.30
freq.     403.94  E(vib)   ...       0.19
freq.     430.54  E(vib)   ...       0.18
freq.     545.17  E(vib)   ...       0.12
freq.     587.17  E(vib)   ...       0.10
freq.     603.37  E(vib)   ...       0.10
freq.     617.27  E(vib)   ...       0.09
freq.     753.18  E(vib)   ...       0.06
freq.     765.76  E(vib)   ...       0.06
freq.     782.24  E(vib)   ...       0.05
freq.     795.01  E(vib)   ...       0.05
freq.     874.24  E(vib)   ...       0.04
freq.     878.20  E(vib)   ...       0.04
freq.     897.23  E(vib)   ...       0.03
freq.     912.45  E(vib)   ...       0.03
freq.     961.86  E(vib)   ...       0.03
freq.    1001.99  E(vib)   ...       0.02
freq.    1032.32  E(vib)   ...       0.02
freq.    1060.58  E(vib)   ...       0.02
freq.    1117.41  E(vib)   ...       0.01
freq.    1147.16  E(vib)   ...       0.01
freq.    1161.84  E(vib)   ...       0.01
freq.    1201.67  E(vib)   ...       0.01
freq.    1282.41  E(vib)   ...       0.01
freq.    1294.05  E(vib)   ...       0.01
freq.    1365.12  E(vib)   ...       0.01
freq.    1407.53  E(vib)   ...       0.00
freq.    1486.82  E(vib)   ...       0.00
freq.    1509.98  E(vib)   ...       0.00
freq.    1589.55  E(vib)   ...       0.00
freq.    1647.88  E(vib)   ...       0.00
freq.    1675.58  E(vib)   ...       0.00
freq.    3188.10  E(vib)   ...       0.00
freq.    3198.44  E(vib)   ...       0.00
freq.    3208.01  E(vib)   ...       0.00
freq.    3216.95  E(vib)   ...       0.00
freq.    3259.02  E(vib)   ...       0.00
freq.    3282.92  E(vib)   ...       0.00

------------
INNER ENERGY
------------

The inner energy is: U= E(el) + E(ZPE) + E(vib) + E(rot) + E(trans)
    E(el)   - is the total energy from the electronic structure calculation
              = E(kin-el) + E(nuc-el) + E(el-el) + E(nuc-nuc)
    E(ZPE)  - the the zero temperature vibrational energy from the frequency calculation
    E(vib)  - the the finite temperature correction to E(ZPE) due to population
              of excited vibrational states
    E(rot)  - is the rotational thermal energy
    E(trans)- is the translational thermal energy

Summary of contributions to the inner energy U:
Electronic energy                ...   -383.38705754 Eh
Zero point energy                ...      0.11758181 Eh      73.78 kcal/mol
Thermal vibrational correction   ...      0.00312101 Eh       1.96 kcal/mol
Thermal rotational correction    ...      0.00141627 Eh       0.89 kcal/mol
Thermal translational correction ...      0.00141627 Eh       0.89 kcal/mol
-----------------------------------------------------------------------
Total thermal energy                   -383.26352217 Eh

Summary of corrections to the electronic energy:
(perhaps to be used in another calculation)
Total thermal correction                  0.00595356 Eh       3.74 kcal/mol
Non-thermal (ZPE) correction              0.11758181 Eh      73.78 kcal/mol
-----------------------------------------------------------------------
Total correction                          0.12353537 Eh      77.52 kcal/mol

--------
ENTHALPY
--------

The enthalpy is H = U + kB*T
                kB is Boltzmann's constant
Total thermal energy              ...   -383.26352217 Eh
Thermal Enthalpy correction       ...      0.00094421 Eh       0.59 kcal/mol
-----------------------------------------------------------------------
Total Enthalpy                    ...   -383.26257796 Eh

Note: Only C1 symmetry has been detected, increase convergence thresholds
      if your molecule has a higher symmetry. Symmetry factor of 1.0 is
      used for the rotational entropy correction.

Note: Rotational entropy computed according to Herzberg
Infrared and Raman Spectra, Chapter V,1, Van Nostrand Reinhold, 1945
Point Group:  C1, Symmetry Number:   1
Rotational constants in cm-1:     0.132034     0.055925     0.039285

Vibrational entropy computed according to the QRRHO of S. Grimme
Chem.Eur.J. 2012 18 9955 using a reference frequency of 100.0 cm-1

-------
ENTROPY
-------

The entropy contributions are T*S = T*(S(el)+S(vib)+S(rot)+S(trans))
     S(el)   - electronic entropy
     S(vib)  - vibrational entropy
     S(rot)  - rotational entropy
     S(trans)- translational entropy
The entropies will be listed as multiplied by the temperature to get
units of energy

Electronic entropy                ...      0.00000000 Eh      0.00 kcal/mol
Vibrational entropy               ...      0.00456422 Eh      2.86 kcal/mol
Rotational entropy                ...      0.01335615 Eh      8.38 kcal/mol
Translational entropy             ...      0.01910727 Eh     11.99 kcal/mol
-----------------------------------------------------------------------
Final entropy term                ...      0.03702764 Eh     23.24 kcal/mol

In case the symmetry of your molecule has not been determined correctly
or in case you have a reason to use a different symmetry number we print
out the resulting rotational entropy values for sn=1,12:

 non-linear molecules -----------------------------------
|  sn= 1 | S(rot)=       0.01335615 Eh      8.38 kcal/mol|
|  sn= 2 | S(rot)=       0.01270169 Eh      7.97 kcal/mol|
|  sn= 3 | S(rot)=       0.01231886 Eh      7.73 kcal/mol|
|  sn= 4 | S(rot)=       0.01204724 Eh      7.56 kcal/mol|
|  sn= 5 | S(rot)=       0.01183655 Eh      7.43 kcal/mol|
|  sn= 6 | S(rot)=       0.01166440 Eh      7.32 kcal/mol|
|  sn= 7 | S(rot)=       0.01151886 Eh      7.23 kcal/mol|
|  sn= 8 | S(rot)=       0.01139278 Eh      7.15 kcal/mol|
|  sn= 9 | S(rot)=       0.01128157 Eh      7.08 kcal/mol|
|  sn=10 | S(rot)=       0.01118209 Eh      7.02 kcal/mol|
|  sn=11 | S(rot)=       0.01109210 Eh      6.96 kcal/mol|
|  sn=12 | S(rot)=       0.01100995 Eh      6.91 kcal/mol|
 linear molecules ---------------------------------------
|  Dinfh | S(rot)=       0.00838203 Eh      5.26 kcal/mol|
|  Cinfv | S(rot)=       0.00903649 Eh      5.67 kcal/mol|
 --------------------------------------------------------

-------------------
GIBBS FREE ENERGY
-------------------

                             ****ORCA TERMINATED NORMALLY****
TOTAL RUN TIME: 0 days 0 hours 24 minutes 16 seconds 304 msec
