                         Program Version 6.0.0  -   RELEASE  -
|  1> !r2SCAN aug-cc-pVTZ d3 TightSCF SlowConv RIJCOSX defgrid2
|  2>
|  3> %pal
|  4> nprocs 15
|  5> end
|  6>
|  7> %scf
|  8> MaxIter 1500
|  9> end
| 10>
| 11> %maxcore 3500
| 12>
| 13> !CPCM
| 14> %cpcm smd true
| 15> SMDsolvent "WATER"
| 16> surfacetype gepol_ses
| 17> rsolv 1.40
| 18> end
| 19>
| 20> * xyz 0 1
| 21> C          -0.04022979995253      0.10934243063256     -0.04781414840262
| 22> C          -1.20598933737927     -0.38579508968121      0.72535064655671
| 23> C           1.16762735129884      0.48320931067021      0.71660533841080
| 24> H          -2.08977721092752     -0.65804131143695      0.14047110955844
| 25> H           2.00933821779047      0.84338404791193      0.11644510533465
| 26> C          -1.15729609336593     -0.48547962221092      2.06219653568719
| 27> C           1.23994061348118      0.39162604465106      2.05974182181754
| 28> H          -1.99856910405152     -0.84630774685815      2.66159543961282
| 29> C           0.05550809013202     -0.10787998980524      2.82546584658989
| 30> O           0.08824138271929     -0.20066312730217      4.03611457894647
| 31> O          -0.08237810438593      0.20201294968745     -1.25889477385297
| 32> C           2.43938990003151      0.75910371183851      2.86443148480113
| 33> H           2.18564348705276      1.54409943819251      3.59804132816950
| 34> H           2.78911766568061     -0.10695868663051      3.45298570242047
| 35> H           3.25938092587604      1.11528426934092      2.22204567334997
| 36> *
| 37>
| 38>                          ****END OF INPUT****

CARTESIAN COORDINATES (ANGSTROEM)
---------------------------------
  C     -0.040230    0.109342   -0.047814
  C     -1.205989   -0.385795    0.725351
  C      1.167627    0.483209    0.716605
  H     -2.089777   -0.658041    0.140471
  H      2.009338    0.843384    0.116445
  C     -1.157296   -0.485480    2.062197
  C      1.239941    0.391626    2.059742
  H     -1.998569   -0.846308    2.661595
  C      0.055508   -0.107880    2.825466
  O      0.088241   -0.200663    4.036115
  O     -0.082378    0.202013   -1.258895
  C      2.439390    0.759104    2.864431
  H      2.185643    1.544099    3.598041
  H      2.789118   -0.106959    3.452986
  H      3.259381    1.115284    2.222046

 Total Charge           Charge          ....    0
 Multiplicity           Mult            ....    1
 Number of Electrons    NEL             ....   64
 Basis Dimension        Dim             ....  552

ORBITAL ENERGIES
----------------

  NO   OCC          E(Eh)            E(eV)
   0   2.0000     -18.973318      -516.2902
   1   2.0000     -18.970498      -516.2135
   2   2.0000     -10.144689      -276.0510
   3   2.0000     -10.143080      -276.0072
   4   2.0000     -10.080003      -274.2908
   5   2.0000     -10.069617      -274.0082
   6   2.0000     -10.068908      -273.9889
   7   2.0000     -10.060615      -273.7633
   8   2.0000     -10.036824      -273.1159
   9   2.0000      -1.035677       -28.1822
  10   2.0000      -1.032312       -28.0906
  11   2.0000      -0.822524       -22.3820
  12   2.0000      -0.764330       -20.7985
  13   2.0000      -0.689005       -18.7488
  14   2.0000      -0.652886       -17.7659
  15   2.0000      -0.586747       -15.9662
  16   2.0000      -0.552172       -15.0254
  17   2.0000      -0.484420       -13.1817
  18   2.0000      -0.469535       -12.7767
  19   2.0000      -0.445430       -12.1208
  20   2.0000      -0.425408       -11.5759
  21   2.0000      -0.410864       -11.1802
  22   2.0000      -0.401856       -10.9351
  23   2.0000      -0.395586       -10.7645
  24   2.0000      -0.387998       -10.5580
  25   2.0000      -0.372393       -10.1333
  26   2.0000      -0.362836        -9.8733
  27   2.0000      -0.348376        -9.4798
  28   2.0000      -0.287934        -7.8351
  29   2.0000      -0.261778        -7.1233
  30   2.0000      -0.253653        -6.9022
  31   2.0000      -0.240905        -6.5554
  32   0.0000      -0.156239        -4.2515
  33   0.0000      -0.046153        -1.2559
  34   0.0000      -0.021080        -0.5736
  35   0.0000       0.010009         0.2724
  36   0.0000       0.023557         0.6410

MULLIKEN ATOMIC CHARGES
-----------------------
   0 C :    1.216833
   1 C :   -0.521165
   2 C :   -0.778653
   3 H :    0.421363
   4 H :    0.181784
   5 C :   -0.535806
   6 C :    0.939454
   7 H :    0.454190
   8 C :    0.782132
   9 O :   -1.030585
  10 O :   -1.005034
  11 C :   -0.707045
  12 H :    0.209772
  13 H :    0.209590
  14 H :    0.163170
Sum of atomic charges:    0.0000000

LOEWDIN ATOMIC CHARGES
----------------------
   0 C :   -0.580234
   1 C :    0.226055
   2 C :    0.236186
   3 H :   -0.166341
   4 H :   -0.165785
   5 C :    0.230038
   6 C :   -0.115513
   7 H :   -0.166837
   8 C :   -0.548315
   9 O :    0.487686
  10 O :    0.454887
  11 C :    0.574380
  12 H :   -0.153943
  13 H :   -0.153909
  14 H :   -0.158355

  Mayer bond orders larger than 0.100000
B(  0-C ,  1-C ) :   0.8031 B(  0-C ,  2-C ) :   0.7440 B(  0-C , 10-O ) :   0.6060
B(  1-C ,  2-C ) :   0.3263 B(  1-C ,  3-H ) :   0.5410 B(  1-C ,  5-C ) :   1.6804
B(  1-C ,  6-C ) :  -0.1362 B(  1-C , 10-O ) :   0.1370 B(  2-C ,  4-H ) :   0.8485
B(  2-C ,  5-C ) :  -0.2087 B(  2-C ,  6-C ) :   1.1512 B(  5-C ,  6-C ) :   0.2460
B(  5-C ,  7-H ) :   0.4674 B(  5-C ,  8-C ) :   0.9505 B(  5-C ,  9-O ) :   0.1295
B(  6-C ,  8-C ) :   0.9120 B(  6-C , 10-O ) :   0.1318 B(  6-C , 11-C ) :   0.4145
B(  8-C ,  9-O ) :   0.6492 B(  8-C , 11-C ) :   0.2046 B( 11-C , 12-H ) :   0.9536
B( 11-C , 13-H ) :   0.9541 B( 11-C , 14-H ) :   1.0349

Dispersion correction           -0.004480403
FINAL SINGLE POINT ENERGY      -420.714860344991

DIPOLE MOMENT
-------------

Method             : SCF
Type of density    : Electron Density
Multiplicity       :   1
Irrep              :   0
Energy             :  -420.7103799420254973 Eh
Relativity type    :
Basis              : AO
                                X                 Y                 Z
Electronic contribution:     -3.837223638      -1.203842986      -2.234776342
Nuclear contribution   :      4.092101562       1.259935150       2.614157328
                        -----------------------------------------
Total Dipole Moment    :      0.254877924       0.056092164       0.379380985
                        -----------------------------------------
Magnitude (a.u.)       :      0.460476947
Magnitude (Debye)      :      1.170439383

Rotational constants in cm-1:             0.099449             0.047883             0.032517
Rotational constants in MHz :          2981.414348          1435.498503           974.822832

                             ****ORCA TERMINATED NORMALLY****
TOTAL RUN TIME: 0 days 0 hours 1 minutes 58 seconds 62 msec
