                         Program Version 6.0.0  -   RELEASE  -
|  1> !PBE0 freq def2-SV(p) d3 TightSCF SlowConv RIJCOSX defgrid2
|  2>
|  3> %pal
|  4> nprocs 12
|  5> end
|  6>
|  7> %scf
|  8> MaxIter 1500
|  9> end
| 10>
| 11> %maxcore 5000
| 12>
| 13> !CPCM
| 14> %cpcm smd true
| 15> SMDsolvent "MeCN"
| 16> surfacetype gepol_ses
| 17> rsolv 2.19
| 18> end
| 19>
| 20> * xyz -1 2
| 21> C           0.68408366168608     -1.22664528293278     -0.00249355555002
| 22> C          -0.69168499999066     -1.22865305833349     -0.00120520411516
| 23> C          -1.40019944098182      0.00233177138536      0.00015748157266
| 24> C          -0.67313794205255      1.22033855355968     -0.00053683797105
| 25> C           0.70562509500564      1.20164135973517     -0.00172102400350
| 26> C           1.43273568123424     -0.01855013533141     -0.00260023651851
| 27> C           2.89280890514887     -0.08762805729422     -0.00372443784946
| 28> O           3.49014969218630     -1.16411280170149     -0.00538569563605
| 29> C           3.67634813768720      1.20830569675458     -0.00228072285598
| 30> H           3.44628943463316      1.82182977041328      0.88722599190394
| 31> H           4.75172236594435      0.97119332152648     -0.00299061951258
| 32> H           3.44579922098985      1.82421980209910     -0.88998273905945
| 33> H           1.24039626031640      2.15598257202894     -0.00209524490014
| 34> H          -1.23047332987049      2.15828956752176      0.00013768384833
| 35> N          -2.79353177923703      0.01360517291864      0.00258921141246
| 36> O          -3.39188055882361      1.11290701722108      0.00349221983000
| 37> O          -3.40942172898893     -1.07599133260750      0.00377677576509
| 38> H          -1.26443108852793     -2.15755998576148     -0.00104672076698
| 39> H           1.23976791364091     -2.16895375120172     -0.00340182559358
| 40> *
| 41>
| 42>                          ****END OF INPUT****

CARTESIAN COORDINATES (ANGSTROEM)
---------------------------------
  C      0.684084   -1.226645   -0.002494
  C     -0.691685   -1.228653   -0.001205
  C     -1.400199    0.002332    0.000157
  C     -0.673138    1.220339   -0.000537
  C      0.705625    1.201641   -0.001721
  C      1.432736   -0.018550   -0.002600
  C      2.892809   -0.087628   -0.003724
  O      3.490150   -1.164113   -0.005386
  C      3.676348    1.208306   -0.002281
  H      3.446289    1.821830    0.887226
  H      4.751722    0.971193   -0.002991
  H      3.445799    1.824220   -0.889983
  H      1.240396    2.155983   -0.002095
  H     -1.230473    2.158290    0.000138
  N     -2.793532    0.013605    0.002589
  O     -3.391881    1.112907    0.003492
  O     -3.409422   -1.075991    0.003777
  H     -1.264431   -2.157560   -0.001047
  H      1.239768   -2.168954   -0.003402

 Total Charge           Charge          ....   -1
 Multiplicity           Mult            ....    2
 Number of Electrons    NEL             ....   87
 Basis Dimension        Dim             ....  182

ORBITAL ENERGIES
----------------
                 SPIN UP ORBITALS
  NO   OCC          E(Eh)            E(eV)
   0   1.0000     -19.166336      -521.5425
   1   1.0000     -19.162564      -521.4399
   2   1.0000     -19.162527      -521.4389
   3   1.0000     -14.541108      -395.6837
   4   1.0000     -10.290249      -280.0119
   5   1.0000     -10.251202      -278.9494
   6   1.0000     -10.227191      -278.2960
   7   1.0000     -10.222933      -278.1802
   8   1.0000     -10.222449      -278.1670
   9   1.0000     -10.222035      -278.1557
  10   1.0000     -10.219187      -278.0782
  11   1.0000     -10.208537      -277.7884
  12   1.0000      -1.170102       -31.8401
  13   1.0000      -1.024493       -27.8779
  14   1.0000      -0.990126       -26.9427
  15   1.0000      -0.870389       -23.6845
  16   1.0000      -0.799177       -21.7467
  17   1.0000      -0.755257       -20.5516
  18   1.0000      -0.738013       -20.0824
  19   1.0000      -0.688727       -18.7412
  20   1.0000      -0.604518       -16.4498
  21   1.0000      -0.586781       -15.9671
  22   1.0000      -0.549261       -14.9462
  23   1.0000      -0.513301       -13.9676
  24   1.0000      -0.500781       -13.6270
  25   1.0000      -0.482260       -13.1230
  26   1.0000      -0.471117       -12.8197
  27   1.0000      -0.446236       -12.1427
  28   1.0000      -0.440734       -11.9930
  29   1.0000      -0.438999       -11.9458
  30   1.0000      -0.423601       -11.5268
  31   1.0000      -0.406181       -11.0527
  32   1.0000      -0.401228       -10.9180
  33   1.0000      -0.377590       -10.2747
  34   1.0000      -0.370541       -10.0829
  35   1.0000      -0.350157        -9.5283
  36   1.0000      -0.334527        -9.1029
  37   1.0000      -0.281368        -7.6564
  38   1.0000      -0.271403        -7.3853
  39   1.0000      -0.266582        -7.2541
  40   1.0000      -0.263125        -7.1600
  41   1.0000      -0.244053        -6.6410
  42   1.0000      -0.242140        -6.5890
  43   1.0000      -0.129520        -3.5244
  44   0.0000      -0.018462        -0.5024
  45   0.0000       0.008310         0.2261
  46   0.0000       0.072123         1.9626
  47   0.0000       0.093355         2.5403
  48   0.0000       0.118406         3.2220

                 SPIN DOWN ORBITALS
  NO   OCC          E(Eh)            E(eV)
   0   1.0000     -19.162969      -521.4509
   1   1.0000     -19.157903      -521.3131
   2   1.0000     -19.157826      -521.3110
   3   1.0000     -14.537387      -395.5824
   4   1.0000     -10.289887      -280.0021
   5   1.0000     -10.249653      -278.9072
   6   1.0000     -10.227646      -278.3084
   7   1.0000     -10.223282      -278.1896
   8   1.0000     -10.221028      -278.1283
   9   1.0000     -10.220772      -278.1213
  10   1.0000     -10.216170      -277.9961
  11   1.0000     -10.208605      -277.7903
  12   1.0000      -1.161836       -31.6152
  13   1.0000      -1.018760       -27.7219
  14   1.0000      -0.981266       -26.7016
  15   1.0000      -0.866410       -23.5762
  16   1.0000      -0.791854       -21.5474
  17   1.0000      -0.752270       -20.4703
  18   1.0000      -0.734576       -19.9888
  19   1.0000      -0.681880       -18.5549
  20   1.0000      -0.603640       -16.4259
  21   1.0000      -0.582221       -15.8430
  22   1.0000      -0.546972       -14.8839
  23   1.0000      -0.507109       -13.7991
  24   1.0000      -0.478727       -13.0268
  25   1.0000      -0.475835       -12.9481
  26   1.0000      -0.468276       -12.7425
  27   1.0000      -0.442335       -12.0365
  28   1.0000      -0.439012       -11.9461
  29   1.0000      -0.432962       -11.7815
  30   1.0000      -0.422816       -11.5054
  31   1.0000      -0.404000       -10.9934
  32   1.0000      -0.400289       -10.8924
  33   1.0000      -0.369109       -10.0440
  34   1.0000      -0.368991       -10.0408
  35   1.0000      -0.336746        -9.1633
  36   1.0000      -0.333680        -9.0799
  37   1.0000      -0.266753        -7.2587
  38   1.0000      -0.260615        -7.0917
  39   1.0000      -0.243561        -6.6276
  40   1.0000      -0.241237        -6.5644
  41   1.0000      -0.240411        -6.5419
  42   1.0000      -0.237932        -6.4745
  43   0.0000      -0.054200        -1.4748
  44   0.0000       0.011078         0.3014
  45   0.0000       0.013885         0.3778
  46   0.0000       0.093330         2.5396
  47   0.0000       0.093698         2.5496

MULLIKEN ATOMIC CHARGES AND SPIN POPULATIONS
--------------------------------------------
   0 C :   -0.166936   -0.034704
   1 C :   -0.189366    0.105092
   2 C :    0.159253    0.068071
   3 C :   -0.193279    0.114582
   4 C :   -0.170785   -0.041819
   5 C :   -0.012689    0.215783
   6 C :    0.043574    0.022709
   7 O :   -0.314462    0.115926
   8 C :   -0.349011   -0.005448
   9 H :    0.157335    0.001695
  10 H :    0.129738   -0.000512
  11 H :    0.157364    0.001695
  12 H :    0.110540    0.000801
  13 H :    0.093572   -0.006622
  14 N :    0.196252    0.128974
  15 O :   -0.419728    0.158920
  16 O :   -0.419932    0.160767
  17 H :    0.094062   -0.006132
  18 H :    0.094498    0.000222
Sum of atomic charges         :   -1.0000000

LOEWDIN ATOMIC CHARGES AND SPIN POPULATIONS
-------------------------------------------
   0 C :   -0.126873   -0.007837
   1 C :   -0.166993    0.081473
   2 C :   -0.085944    0.087870
   3 C :   -0.168534    0.088015
   4 C :   -0.135856   -0.012315
   5 C :   -0.147176    0.164747
   6 C :    0.032251    0.040280
   7 O :   -0.253046    0.113118
   8 C :   -0.374867   -0.001293
   9 H :    0.144250    0.001569
  10 H :    0.130080   -0.000279
  11 H :    0.144265    0.001568
  12 H :    0.136903    0.000326
  13 H :    0.136257   -0.003100
  14 N :    0.222230    0.134301
  15 O :   -0.377140    0.156304
  16 O :   -0.376683    0.158099
  17 H :    0.135711   -0.002905
  18 H :    0.131163    0.000059

  Mayer bond orders larger than 0.100000
B(  0-C ,  1-C ) :   1.4499 B(  0-C ,  5-C ) :   1.2500 B(  0-C , 18-H ) :   0.9616
B(  1-C ,  2-C ) :   1.2335 B(  1-C , 17-H ) :   0.9592 B(  2-C ,  3-C ) :   1.2455
B(  2-C , 14-N ) :   1.0754 B(  3-C ,  4-C ) :   1.4563 B(  3-C , 13-H ) :   0.9560
B(  4-C ,  5-C ) :   1.2521 B(  4-C , 12-H ) :   0.9500 B(  5-C ,  6-C ) :   1.0600
B(  6-C ,  7-O ) :   2.0148 B(  6-C ,  8-C ) :   1.1001 B(  8-C ,  9-H ) :   0.9219
B(  8-C , 10-H ) :   0.9394 B(  8-C , 11-H ) :   0.9218 B( 14-N , 15-O ) :   1.3708
B( 14-N , 16-O ) :   1.3690 B( 15-O , 16-O ) :   0.1756

Dispersion correction           -0.018308116
FINAL SINGLE POINT ENERGY      -588.441519794176

DIPOLE MOMENT
-------------

Method             : SCF
Type of density    : Electron Density
Multiplicity       :   2
Irrep              :   0
Energy             :  -588.4232116782052344 Eh
Relativity type    :
Basis              : AO
                                X                 Y                 Z
Electronic contribution:     -8.318023391      -3.103944077       0.004230992
Nuclear contribution   :     10.877428257       4.317176654      -0.006597315
                        -----------------------------------------
Total Dipole Moment    :      2.559404865       1.213232577      -0.002366322
                        -----------------------------------------
Magnitude (a.u.)       :      2.832400422
Magnitude (Debye)      :      7.199389728

VIBRATIONAL FREQUENCIES
-----------------------

Scaling factor for frequencies =  1.000000000  (already applied!)

     0:       0.00 cm**-1
     1:       0.00 cm**-1
     2:       0.00 cm**-1
     3:       0.00 cm**-1
     4:       0.00 cm**-1
     5:       0.00 cm**-1
     6:      72.56 cm**-1
     7:      78.90 cm**-1
     8:     116.47 cm**-1
     9:     146.73 cm**-1
    10:     160.31 cm**-1
    11:     226.45 cm**-1
    12:     274.64 cm**-1
    13:     300.95 cm**-1
    14:     408.01 cm**-1
    15:     447.04 cm**-1
    16:     453.94 cm**-1
    17:     532.95 cm**-1
    18:     560.44 cm**-1
    19:     591.10 cm**-1
    20:     633.48 cm**-1
    21:     636.92 cm**-1
    22:     660.98 cm**-1
    23:     743.40 cm**-1
    24:     745.73 cm**-1
    25:     820.46 cm**-1
    26:     837.01 cm**-1
    27:     851.89 cm**-1
    28:     960.50 cm**-1
    29:     990.29 cm**-1
    30:     994.58 cm**-1
    31:    1009.77 cm**-1
    32:    1033.46 cm**-1
    33:    1084.46 cm**-1
    34:    1099.88 cm**-1
    35:    1118.15 cm**-1
    36:    1196.84 cm**-1
    37:    1288.55 cm**-1
    38:    1312.97 cm**-1
    39:    1371.76 cm**-1
    40:    1394.66 cm**-1
    41:    1431.22 cm**-1
    42:    1438.65 cm**-1
    43:    1441.29 cm**-1
    44:    1504.47 cm**-1
    45:    1514.69 cm**-1
    46:    1526.57 cm**-1
    47:    1590.77 cm**-1
    48:    1685.32 cm**-1
    49:    1725.70 cm**-1
    50:    3036.34 cm**-1
    51:    3123.40 cm**-1
    52:    3159.05 cm**-1
    53:    3205.92 cm**-1
    54:    3208.42 cm**-1
    55:    3239.76 cm**-1
    56:    3242.53 cm**-1

IR SPECTRUM
-----------

 Mode   freq       eps      Int      T**2         TX        TY        TZ
       cm**-1   L/(mol*cm) km/mol    a.u.
----------------------------------------------------------------------------
  6:     72.56   0.000057    0.29  0.000245  ( 0.001158  0.000099 -0.015617)
  7:     78.90   0.001544    7.80  0.006105  ( 0.000788 -0.000555 -0.078129)
  8:    116.47   0.000229    1.16  0.000612  (-0.000447 -0.000522  0.024738)
  9:    146.73   0.000174    0.88  0.000370  ( 0.000381  0.000028  0.019224)
 10:    160.31   0.001805    9.12  0.003515  (-0.042342 -0.041494  0.000173)
 11:    226.45   0.000282    1.42  0.000388  (-0.000218 -0.000097  0.019703)
 12:    274.64   0.001548    7.82  0.001758  ( 0.037524 -0.018718 -0.000066)
 13:    300.95   0.000477    2.41  0.000494  (-0.020938  0.007477  0.000083)
 14:    408.01   0.000957    4.83  0.000732  ( 0.000097  0.000026 -0.027051)
 15:    447.04   0.000763    3.85  0.000532  (-0.006889 -0.022020 -0.000020)
 16:    453.94   0.000062    0.32  0.000043  (-0.000099  0.000145 -0.006550)
 17:    532.95   0.008905   45.00  0.005214  ( 0.072208 -0.000059 -0.000086)
 18:    560.44   0.002574   13.01  0.001433  ( 0.031669  0.020748 -0.000008)
 19:    591.10   0.001026    5.18  0.000541  (-0.000118 -0.000035 -0.023268)
 20:    633.48   0.004708   23.79  0.002319  (-0.045717 -0.015140  0.000016)
 21:    636.92   0.000212    1.07  0.000104  ( 0.010179  0.000647  0.000020)
 22:    660.98   0.009210   46.54  0.004348  ( 0.000293 -0.000002  0.065939)
 23:    743.40   0.000005    0.03  0.000002  (-0.001255  0.000124  0.000706)
 24:    745.73   0.007300   36.89  0.003055  ( 0.055025 -0.005218 -0.000024)
 25:    820.46   0.004417   22.32  0.001680  ( 0.000268  0.000164  0.040989)
 26:    837.01   0.008889   44.92  0.003314  (-0.000173 -0.000037  0.057566)
 27:    851.89   0.017573   88.81  0.006437  ( 0.080229 -0.000723 -0.000073)
 28:    960.50   0.078329  395.84  0.025449  ( 0.158865  0.014510 -0.000205)
 29:    990.29   0.000153    0.77  0.000048  ( 0.001376 -0.000078  0.006802)
 30:    994.58   0.005685   28.73  0.001784  ( 0.042100  0.003374 -0.000220)
 31:   1009.77   0.000170    0.86  0.000053  (-0.000142 -0.000277 -0.007252)
 32:   1033.46   0.001188    6.00  0.000359  (-0.000333 -0.000082 -0.018934)
 33:   1084.46   0.050015  252.76  0.014392  (-0.119967  0.000227  0.000130)
 34:   1099.88   0.011006   55.62  0.003123  (-0.016364  0.053431  0.000043)
 35:   1118.15   0.114908  580.70  0.032070  (-0.178927  0.007399  0.000210)
 36:   1196.84   0.047087  237.96  0.012277  ( 0.110735 -0.003894 -0.000122)
 37:   1288.55   0.004772   24.11  0.001156  ( 0.032767  0.009054 -0.000018)
 38:   1312.97   0.328141  1658.29  0.077992  ( 0.279268 -0.000939 -0.000259)
 39:   1371.76   0.080294  405.77  0.018266  (-0.128264 -0.042596  0.000221)
 40:   1394.66   0.131818  666.15  0.029495  ( 0.171741  0.000185 -0.000235)
 41:   1431.22   0.021095  106.61  0.004600  (-0.061198  0.029229 -0.000117)
 42:   1438.65   0.233021  1177.59  0.050546  ( 0.224162 -0.017243 -0.000189)
 43:   1441.29   0.002829   14.29  0.000612  (-0.001199  0.000394  0.024715)
 44:   1504.47   0.061536  310.98  0.012764  ( 0.103344  0.045653 -0.000076)
 45:   1514.69   0.067772  342.49  0.013963  ( 0.114725 -0.028299 -0.000098)
 46:   1526.57   0.049544  250.38  0.010128  (-0.002725 -0.100601  0.000013)
 47:   1590.77   0.017216   87.00  0.003377  (-0.018675  0.055032  0.000006)
 48:   1685.32   0.057838  292.29  0.010710  ( 0.101167 -0.021789 -0.000143)
 49:   1725.70   0.163515  826.34  0.029569  ( 0.151128 -0.082031 -0.000212)
 50:   3036.34   0.003591   18.15  0.000369  ( 0.017702  0.007462  0.000039)
 51:   3123.40   0.001378    6.96  0.000138  ( 0.000048  0.000005  0.011733)
 52:   3159.05   0.003597   18.18  0.000355  (-0.018616  0.002968 -0.000008)
 53:   3205.92   0.001886    9.53  0.000184  ( 0.004285  0.012855 -0.000008)
 54:   3208.42   0.001372    6.94  0.000133  ( 0.003827  0.010902 -0.000011)
 55:   3239.76   0.000886    4.48  0.000085  (-0.003062  0.008718  0.000014)
 56:   3242.53   0.000915    4.62  0.000088  ( 0.008351  0.004277 -0.000028)

--------------------------
THERMOCHEMISTRY AT 298.15K
--------------------------

Temperature         ...   298.15 K
Pressure            ...     1.00 atm
Total Mass          ...   165.15 AMU
Quasi RRHO          ...     True
Cut-Off Frequency   ...     1.00 cm^-1

Throughout the following assumptions are being made:
  (1) The electronic state is orbitally nondegenerate
      but the spin degeneracy is treated
  (2) There are no thermally accessible electronically excited states
  (3) Hindered rotations indicated by low frequency modes are not
      treated as such but are treated as vibrations and this may
      cause some error
  (4) All equations used are the standard statistical mechanics
      equations for an ideal gas
  (5) All vibrations are strictly harmonic

freq.      72.56  E(vib)   ...       0.49
freq.      78.90  E(vib)   ...       0.49
freq.     116.47  E(vib)   ...       0.44
freq.     146.73  E(vib)   ...       0.41
freq.     160.31  E(vib)   ...       0.39
freq.     226.45  E(vib)   ...       0.33
freq.     274.64  E(vib)   ...       0.28
freq.     300.95  E(vib)   ...       0.26
freq.     408.01  E(vib)   ...       0.19
freq.     447.04  E(vib)   ...       0.17
freq.     453.94  E(vib)   ...       0.16
freq.     532.95  E(vib)   ...       0.13
freq.     560.44  E(vib)   ...       0.11
freq.     591.10  E(vib)   ...       0.10
freq.     633.48  E(vib)   ...       0.09
freq.     636.92  E(vib)   ...       0.09
freq.     660.98  E(vib)   ...       0.08
freq.     743.40  E(vib)   ...       0.06
freq.     745.73  E(vib)   ...       0.06
freq.     820.46  E(vib)   ...       0.05
freq.     837.01  E(vib)   ...       0.04
freq.     851.89  E(vib)   ...       0.04
freq.     960.50  E(vib)   ...       0.03
freq.     990.29  E(vib)   ...       0.02
freq.     994.58  E(vib)   ...       0.02
freq.    1009.77  E(vib)   ...       0.02
freq.    1033.46  E(vib)   ...       0.02
freq.    1084.46  E(vib)   ...       0.02
freq.    1099.88  E(vib)   ...       0.02
freq.    1118.15  E(vib)   ...       0.01
freq.    1196.84  E(vib)   ...       0.01
freq.    1288.55  E(vib)   ...       0.01
freq.    1312.97  E(vib)   ...       0.01
freq.    1371.76  E(vib)   ...       0.01
freq.    1394.66  E(vib)   ...       0.00
freq.    1431.22  E(vib)   ...       0.00
freq.    1438.65  E(vib)   ...       0.00
freq.    1441.29  E(vib)   ...       0.00
freq.    1504.47  E(vib)   ...       0.00
freq.    1514.69  E(vib)   ...       0.00
freq.    1526.57  E(vib)   ...       0.00
freq.    1590.77  E(vib)   ...       0.00
freq.    1685.32  E(vib)   ...       0.00
freq.    1725.70  E(vib)   ...       0.00
freq.    3036.34  E(vib)   ...       0.00
freq.    3123.40  E(vib)   ...       0.00
freq.    3159.05  E(vib)   ...       0.00
freq.    3205.92  E(vib)   ...       0.00
freq.    3208.42  E(vib)   ...       0.00
freq.    3239.76  E(vib)   ...       0.00
freq.    3242.53  E(vib)   ...       0.00

------------
INNER ENERGY
------------

The inner energy is: U= E(el) + E(ZPE) + E(vib) + E(rot) + E(trans)
    E(el)   - is the total energy from the electronic structure calculation
              = E(kin-el) + E(nuc-el) + E(el-el) + E(nuc-nuc)
    E(ZPE)  - the the zero temperature vibrational energy from the frequency calculation
    E(vib)  - the the finite temperature correction to E(ZPE) due to population
              of excited vibrational states
    E(rot)  - is the rotational thermal energy
    E(trans)- is the translational thermal energy

Summary of contributions to the inner energy U:
Electronic energy                ...   -588.44151979 Eh
Zero point energy                ...      0.13949295 Eh      87.53 kcal/mol
Thermal vibrational correction   ...      0.00747981 Eh       4.69 kcal/mol
Thermal rotational correction    ...      0.00141627 Eh       0.89 kcal/mol
Thermal translational correction ...      0.00141627 Eh       0.89 kcal/mol
-----------------------------------------------------------------------
Total thermal energy                   -588.29171449 Eh

Summary of corrections to the electronic energy:
(perhaps to be used in another calculation)
Total thermal correction                  0.01031235 Eh       6.47 kcal/mol
Non-thermal (ZPE) correction              0.13949295 Eh      87.53 kcal/mol
-----------------------------------------------------------------------
Total correction                          0.14980530 Eh      94.00 kcal/mol

--------
ENTHALPY
--------

The enthalpy is H = U + kB*T
                kB is Boltzmann's constant
Total thermal energy              ...   -588.29171449 Eh
Thermal Enthalpy correction       ...      0.00094421 Eh       0.59 kcal/mol
-----------------------------------------------------------------------
Total Enthalpy                    ...   -588.29077028 Eh

Note: Only C1 symmetry has been detected, increase convergence thresholds
      if your molecule has a higher symmetry. Symmetry factor of 1.0 is
      used for the rotational entropy correction.

Note: Rotational entropy computed according to Herzberg
Infrared and Raman Spectra, Chapter V,1, Van Nostrand Reinhold, 1945
Point Group:  C1, Symmetry Number:   1
Rotational constants in cm-1:     0.095162     0.015864     0.013633

Vibrational entropy computed according to the QRRHO of S. Grimme
Chem.Eur.J. 2012 18 9955 using a reference frequency of 100.0 cm-1

-------
ENTROPY
-------

The entropy contributions are T*S = T*(S(el)+S(vib)+S(rot)+S(trans))
     S(el)   - electronic entropy
     S(vib)  - vibrational entropy
     S(rot)  - rotational entropy
     S(trans)- translational entropy
The entropies will be listed as multiplied by the temperature to get
units of energy

Electronic entropy                ...      0.00065446 Eh      0.41 kcal/mol
Vibrational entropy               ...      0.01281732 Eh      8.04 kcal/mol
Rotational entropy                ...      0.01460520 Eh      9.16 kcal/mol
Translational entropy             ...      0.01958175 Eh     12.29 kcal/mol
-----------------------------------------------------------------------
Final entropy term                ...      0.04765872 Eh     29.91 kcal/mol

In case the symmetry of your molecule has not been determined correctly
or in case you have a reason to use a different symmetry number we print
out the resulting rotational entropy values for sn=1,12:

 non-linear molecules -----------------------------------
|  sn= 1 | S(rot)=       0.01460520 Eh      9.16 kcal/mol|
|  sn= 2 | S(rot)=       0.01395075 Eh      8.75 kcal/mol|
|  sn= 3 | S(rot)=       0.01356791 Eh      8.51 kcal/mol|
|  sn= 4 | S(rot)=       0.01329629 Eh      8.34 kcal/mol|
|  sn= 5 | S(rot)=       0.01308560 Eh      8.21 kcal/mol|
|  sn= 6 | S(rot)=       0.01291346 Eh      8.10 kcal/mol|
|  sn= 7 | S(rot)=       0.01276791 Eh      8.01 kcal/mol|
|  sn= 8 | S(rot)=       0.01264183 Eh      7.93 kcal/mol|

                             ****ORCA TERMINATED NORMALLY****
TOTAL RUN TIME: 0 days 0 hours 7 minutes 25 seconds 353 msec
