                         Program Version 6.0.0  -   RELEASE  -
|  1> !PBE0 aug-cc-pVTZ d3 TightSCF SlowConv RIJCOSX defgrid2
|  2>
|  3> %pal
|  4> nprocs 4
|  5> end
|  6>
|  7> %scf
|  8> MaxIter 1500
|  9> end
| 10>
| 11> %maxcore 3000
| 12>
| 13> !CPCM
| 14> %cpcm smd true
| 15> SMDsolvent "MeCN"
| 16> surfacetype gepol_ses
| 17> rsolv 2.19
| 18> end
| 19>
| 20> * xyz 0 1
| 21> C           0.03260910228520      1.08137561321675     -0.00005519024681
| 22> C          -1.34067616416986      1.33940990966857     -0.00006277386150
| 23> C          -2.26505829948608      0.29987796591520     -0.00002637645918
| 24> C          -1.80355661628939     -1.01995706797392      0.00001567004565
| 25> C          -0.44212934457685     -1.29206473885913      0.00002194287208
| 26> C           0.48773718530999     -0.24207145865110     -0.00001289966776
| 27> O           1.78848371232752     -0.60054348212568     -0.00000734481067
| 28> C           2.76447200773818      0.40008618654603     -0.00000767276834
| 29> H           2.69619012376907      1.04049548625701     -0.90084775937446
| 30> H           2.69616289260516      1.04052094820081      0.90081198872589
| 31> H           3.73793416758510     -0.11300324243944      0.00001415192437
| 32> H          -0.06314832394927     -2.31720165011296      0.00005410336572
| 33> H          -2.51681541922482     -1.84998358326110      0.00004248911056
| 34> H          -3.33762461646730      0.51193314493410     -0.00003142013851
| 35> H          -1.68480228384705      2.37828066720121     -0.00009724328111
| 36> H           0.73383607639040      1.91798680148364     -0.00008576543595
| 37> *
| 38>
| 39>                          ****END OF INPUT****

CARTESIAN COORDINATES (ANGSTROEM)
---------------------------------
  C      0.032609    1.081376   -0.000055
  C     -1.340676    1.339410   -0.000063
  C     -2.265058    0.299878   -0.000026
  C     -1.803557   -1.019957    0.000016
  C     -0.442129   -1.292065    0.000022
  C      0.487737   -0.242071   -0.000013
  O      1.788484   -0.600543   -0.000007
  C      2.764472    0.400086   -0.000008
  H      2.696190    1.040495   -0.900848
  H      2.696163    1.040521    0.900812
  H      3.737934   -0.113003    0.000014
  H     -0.063148   -2.317202    0.000054
  H     -2.516815   -1.849984    0.000042
  H     -3.337625    0.511933   -0.000031
  H     -1.684802    2.378281   -0.000097
  H      0.733836    1.917987   -0.000086

 Total Charge           Charge          ....    0
 Multiplicity           Mult            ....    1
 Number of Electrons    NEL             ....   58
 Basis Dimension        Dim             ....  552

ORBITAL ENERGIES
----------------

  NO   OCC          E(Eh)            E(eV)
   0   2.0000     -19.244546      -523.6707
   1   2.0000     -10.291247      -280.0391
   2   2.0000     -10.265957      -279.3509
   3   2.0000     -10.232371      -278.4370
   4   2.0000     -10.232227      -278.4330
   5   2.0000     -10.227959      -278.3169
   6   2.0000     -10.226593      -278.2797
   7   2.0000     -10.223491      -278.1953
   8   2.0000      -1.107230       -30.1293
   9   2.0000      -0.879754       -23.9393
  10   2.0000      -0.781121       -21.2554
  11   2.0000      -0.769517       -20.9396
  12   2.0000      -0.710766       -19.3409
  13   2.0000      -0.628162       -17.0931
  14   2.0000      -0.605424       -16.4744
  15   2.0000      -0.551581       -15.0093
  16   2.0000      -0.498991       -13.5782
  17   2.0000      -0.494994       -13.4695
  18   2.0000      -0.483613       -13.1598
  19   2.0000      -0.453973       -12.3532
  20   2.0000      -0.433090       -11.7850
  21   2.0000      -0.422180       -11.4881
  22   2.0000      -0.393541       -10.7088
  23   2.0000      -0.374854       -10.2003
  24   2.0000      -0.366261        -9.9665
  25   2.0000      -0.336531        -9.1575
  26   2.0000      -0.335746        -9.1361
  27   2.0000      -0.270786        -7.3685
  28   2.0000      -0.237484        -6.4623
  29   0.0000      -0.012477        -0.3395
  30   0.0000       0.002315         0.0630
  31   0.0000       0.002601         0.0708
  32   0.0000       0.014792         0.4025
  33   0.0000       0.017969         0.4890

MULLIKEN ATOMIC CHARGES
-----------------------
   0 C :   -0.581737
   1 C :   -0.592850
   2 C :   -0.728044
   3 C :   -0.355768
   4 C :   -1.023114
   5 C :    0.976772
   6 O :   -0.629879
   7 C :   -0.743689
   8 H :    0.290650
   9 H :    0.291060
  10 H :    0.258100
  11 H :    0.637009
  12 H :    0.448193
  13 H :    0.634483
  14 H :    0.400444
  15 H :    0.718369
Sum of atomic charges:    0.0000000

LOEWDIN ATOMIC CHARGES
----------------------
   0 C :    0.190726
   1 C :    0.168643
   2 C :    0.165945
   3 C :    0.163863
   4 C :    0.185445
   5 C :   -0.416252
   6 O :    0.591625
   7 C :    0.310515
   8 H :   -0.158964
   9 H :   -0.158986
  10 H :   -0.167801
  11 H :   -0.171440
  12 H :   -0.169115
  13 H :   -0.176752
  14 H :   -0.168113
  15 H :   -0.189339

  Mayer bond orders larger than 0.100000
B(  0-C ,  1-C ) :   1.1479 B(  0-C ,  2-C ) :   0.2602 B(  0-C ,  4-C ) :   0.4918
B(  0-C ,  5-C ) :   0.9853 B(  1-C ,  2-C ) :   1.3293 B(  1-C ,  3-C ) :  -0.2243
B(  1-C ,  5-C ) :  -0.4319 B(  1-C , 14-H ) :   0.8169 B(  1-C , 15-H ) :   0.1347
B(  2-C ,  3-C ) :   1.2430 B(  2-C ,  4-C ) :   0.4003 B(  2-C , 13-H ) :   0.3022
B(  2-C , 15-H ) :  -0.1071 B(  3-C ,  4-C ) :   1.3500 B(  3-C ,  5-C ) :  -0.3597
B(  3-C , 11-H ) :   0.1067 B(  3-C , 12-H ) :   0.7169 B(  3-C , 15-H ) :   0.1496
B(  4-C ,  5-C ) :   0.7080 B(  4-C ,  6-O ) :   0.2212 B(  4-C , 11-H ) :   0.1312
B(  5-C ,  6-O ) :   0.5687 B(  6-O ,  7-C ) :   1.0633 B(  7-C ,  8-H ) :   0.8963
B(  7-C ,  9-H ) :   0.8963 B(  7-C , 10-H ) :   0.9614

Dispersion correction           -0.012971304
FINAL SINGLE POINT ENERGY      -346.507152340255

DIPOLE MOMENT
-------------

Method             : SCF
Type of density    : Electron Density
Multiplicity       :   1
Irrep              :   0
Energy             :  -346.4941810367236599 Eh
Relativity type    :
Basis              : AO
                                X                 Y                 Z
Electronic contribution:     -1.717032755      -1.886554770      -0.000009266
Nuclear contribution   :      2.143742692       2.450814428      -0.000006666
                        -----------------------------------------
Total Dipole Moment    :      0.426709937       0.564259658      -0.000015932
                        -----------------------------------------
Magnitude (a.u.)       :      0.707439278
Magnitude (Debye)      :      1.798167743

Rotational constants in cm-1:             0.168604             0.052375             0.040274
Rotational constants in MHz :          5054.615103          1570.170626          1207.382090

                             ****ORCA TERMINATED NORMALLY****
TOTAL RUN TIME: 0 days 0 hours 3 minutes 45 seconds 331 msec
