                         Program Version 6.0.0  -   RELEASE  -
|  1> !B3LYP opt aug-cc-pVTZ d3 TightSCF SlowConv RIJCOSX defgrid2
|  2>
|  3> %pal
|  4> nprocs 8
|  5> end
|  6>
|  7> %scf
|  8> MaxIter 1500
|  9> end
| 10>
| 11> %maxcore 3500
| 12>
| 13> !CPCM
| 14> %cpcm smd true
| 15> SMDsolvent "MeCN"
| 16> surfacetype gepol_ses
| 17> rsolv 2.19
| 18> end
| 19>
| 20> * xyz 1 2
| 21> C           0.87744843065952     -1.21883020305656     -0.00000377931808
| 22> C           1.23614385256415      0.16954678831828     -0.00005753568123
| 23> C           0.19424149048169      1.13860709962105     -0.00010423188513
| 24> C          -1.13871229830849      0.78765011017298     -0.00010761886515
| 25> C          -1.47639805753200     -0.61212175919558     -0.00004559988331
| 26> C          -0.44313247207265     -1.58385318757954     -0.00000224391858
| 27> H          -0.71685810144297     -2.64212602539406      0.00003056402544
| 28> C          -2.89571606376255     -1.03893857261662      0.00008867922043
| 29> H          -3.00213765434000     -2.13324643661373     -0.00058232712929
| 30> H          -3.42610981706820     -0.62983884560970     -0.88112182092760
| 31> H          -3.42539618531857     -0.63109402296886      0.88234176195400
| 32> C          -2.21290888782919      1.82515453001126     -0.00014347524999
| 33> H          -2.86411247883622      1.72648441322314      0.88680265880356
| 34> H          -2.86402349010390      1.72654581117049     -0.88716064088710
| 35> H          -1.78890328618740      2.84026297434392     -0.00008728403417
| 36> H           0.46977060139751      2.19725330423840     -0.00014030748002
| 37> C           2.58814654556121      0.62001515372005     -0.00006319236512
| 38> C           3.70337676945614     -0.17841322402212     -0.00002927580579
| 39> H           3.65253331490638     -1.27227115038024      0.00001025225905
| 40> H           4.70281234102144      0.26973736826902     -0.00003315173613
| 41> H           2.73668489690756      1.70605493317894     -0.00009332036310
| 42> H           1.65048734984656     -1.99000785883051      0.00003538926729
| 43> *
| 44>
| 45>                          ****END OF INPUT****
 Total Charge           Charge          ....    1
 Multiplicity           Mult            ....    2
 Number of Electrons    NEL             ....   71
Dispersion correction           -0.039357411
FINAL SINGLE POINT ENERGY      -388.002412069267
Dispersion correction             ... done (  0.0 sec)
Dispersion correction           -0.039562456
FINAL SINGLE POINT ENERGY      -388.003952559448
Dispersion correction             ... done (  0.1 sec)
Dispersion correction           -0.039591499
FINAL SINGLE POINT ENERGY      -388.003964519382
Dispersion correction             ... done (  0.0 sec)
Dispersion correction           -0.039598564
FINAL SINGLE POINT ENERGY      -388.003967853851
Dispersion correction             ... done (  0.0 sec)
                    ***********************HURRAY********************

CARTESIAN COORDINATES (ANGSTROEM)
---------------------------------
  C      0.876158   -1.210472   -0.000870
  C      1.229190    0.174481   -0.000874
  C      0.192594    1.140411   -0.001132
  C     -1.131302    0.785208   -0.000721
  C     -1.465772   -0.608876   -0.000388
  C     -0.437565   -1.576029   -0.000702
  H     -0.707649   -2.622212   -0.000438
  C     -2.883286   -1.037136    0.000646
  H     -2.979270   -2.119196   -0.001835
  H     -3.406735   -0.630504   -0.869684
  H     -3.403240   -0.635343    0.875437
  C     -2.208039    1.820483   -0.000398
  H     -2.849645    1.718358    0.877355
  H     -2.851295    1.716947   -0.876746
  H     -1.783965    2.821826   -0.001675
  H      0.468102    2.185964   -0.001699
  C      2.577485    0.622616    0.000271
  C      3.674469   -0.184034    0.001178
  H      3.609546   -1.262496    0.000172
  H      4.664391    0.249395    0.002738
  H      2.728701    1.694792    0.000249
  H      1.644362   -1.967611   -0.001350

 Multiplicity           Mult            ....    2
 Number of Electrons    NEL             ....   71
 Basis Dimension        Dim             ....  736

ORBITAL ENERGIES
----------------
                 SPIN UP ORBITALS
  NO   OCC          E(Eh)            E(eV)
   0   1.0000     -10.244149      -278.7575
   1   1.0000     -10.240333      -278.6536
   2   1.0000     -10.225632      -278.2536
   3   1.0000     -10.221433      -278.1393
   4   1.0000     -10.221110      -278.1305
   5   1.0000     -10.218218      -278.0518
   6   1.0000     -10.206697      -277.7384
   7   1.0000     -10.203629      -277.6549
   8   1.0000     -10.179567      -277.0001
   9   1.0000     -10.174083      -276.8509
  10   1.0000      -0.908669       -24.7261
  11   1.0000      -0.848222       -23.0813
  12   1.0000      -0.802050       -21.8249
  13   1.0000      -0.787004       -21.4155
  14   1.0000      -0.728615       -19.8266
  15   1.0000      -0.699157       -19.0250
  16   1.0000      -0.641853       -17.4657
  17   1.0000      -0.630806       -17.1651
  18   1.0000      -0.575891       -15.6708
  19   1.0000      -0.534844       -14.5538
  20   1.0000      -0.517110       -14.0713
  21   1.0000      -0.482778       -13.1370
  22   1.0000      -0.460063       -12.5190
  23   1.0000      -0.459396       -12.5008
  24   1.0000      -0.448948       -12.2165
  25   1.0000      -0.441111       -12.0032
  26   1.0000      -0.412764       -11.2319
  27   1.0000      -0.407009       -11.0753
  28   1.0000      -0.404789       -11.0149
  29   1.0000      -0.402164       -10.9434
  30   1.0000      -0.392996       -10.6940
  31   1.0000      -0.371145       -10.0994
  32   1.0000      -0.361664        -9.8414
  33   1.0000      -0.337162        -9.1746
  34   1.0000      -0.286580        -7.7982
  35   1.0000      -0.266393        -7.2489
  36   0.0000      -0.093604        -2.5471
  37   0.0000      -0.037853        -1.0300
  38   0.0000      -0.006754        -0.1838
  39   0.0000       0.002924         0.0796
  40   0.0000       0.003288         0.0895

                 SPIN DOWN ORBITALS
  NO   OCC          E(Eh)            E(eV)
   0   1.0000     -10.239674      -278.6357
   1   1.0000     -10.237168      -278.5675
   2   1.0000     -10.222168      -278.1593
   3   1.0000     -10.220643      -278.1178
   4   1.0000     -10.219625      -278.0901
   5   1.0000     -10.216381      -278.0019
   6   1.0000     -10.206657      -277.7372
   7   1.0000     -10.204246      -277.6717
   8   1.0000     -10.179662      -277.0027
   9   1.0000     -10.174095      -276.8512
  10   1.0000      -0.902240       -24.5512
  11   1.0000      -0.840455       -22.8699
  12   1.0000      -0.800522       -21.7833
  13   1.0000      -0.777690       -21.1620
  14   1.0000      -0.724714       -19.7205
  15   1.0000      -0.694018       -18.8852
  16   1.0000      -0.637535       -17.3482
  17   1.0000      -0.626895       -17.0587
  18   1.0000      -0.571742       -15.5579
  19   1.0000      -0.532977       -14.5030
  20   1.0000      -0.514402       -13.9976
  21   1.0000      -0.479935       -13.0597
  22   1.0000      -0.457648       -12.4532
  23   1.0000      -0.449907       -12.2426
  24   1.0000      -0.446424       -12.1478
  25   1.0000      -0.440054       -11.9745
  26   1.0000      -0.408871       -11.1259
  27   1.0000      -0.404919       -11.0184
  28   1.0000      -0.401735       -10.9318
  29   1.0000      -0.391317       -10.6483
  30   1.0000      -0.389473       -10.5981
  31   1.0000      -0.370117       -10.0714
  32   1.0000      -0.359464        -9.7815
  33   1.0000      -0.313463        -8.5298
  34   1.0000      -0.281798        -7.6681
  35   0.0000      -0.192893        -5.2489
  36   0.0000      -0.067800        -1.8449
  37   0.0000      -0.028810        -0.7840
  38   0.0000      -0.006492        -0.1767
  39   0.0000       0.003294         0.0896

MULLIKEN ATOMIC CHARGES AND SPIN POPULATIONS
--------------------------------------------
   0 C :   -0.212817    0.116818
   1 C :    2.081312    0.215599
   2 C :   -1.005869   -0.001295
   3 C :    0.635208    0.017178
   4 C :    0.876776    0.339516
   5 C :   -1.169872   -0.062536
   6 H :    0.101336    0.005268
   7 C :   -0.722855   -0.022860
   8 H :    0.107563   -0.006350
   9 H :    0.243110    0.022989
  10 H :    0.243389    0.023170
  11 C :   -0.728333   -0.003800
  12 H :    0.240972    0.003030
  13 H :    0.240818    0.003002
  14 H :    0.105348   -0.000523
  15 H :   -0.263360    0.002347
  16 C :    0.036327    0.004182
  17 C :   -0.880948    0.365369
  18 H :    0.311539   -0.001449
  19 H :    0.290577   -0.013625
  20 H :    0.213459    0.011425
  21 H :    0.256320   -0.017457
Sum of atomic charges         :    1.0000000

LOEWDIN ATOMIC CHARGES AND SPIN POPULATIONS
-------------------------------------------
   0 C :    0.284935    0.085889
   1 C :   -0.071885    0.125141
   2 C :    0.284607    0.038450
   3 C :   -0.041587    0.058858
   4 C :   -0.024490    0.156728
   5 C :    0.290056    0.044312
   6 H :   -0.151911   -0.002413
   7 C :    0.626754    0.051331
   8 H :   -0.154321    0.001415
   9 H :   -0.138808    0.012045
  10 H :   -0.138383    0.012135
  11 C :    0.611636    0.006608
  12 H :   -0.147541    0.001951
  13 H :   -0.147751    0.001948
  14 H :   -0.158496    0.000043
  15 H :   -0.149745    0.001573
  16 C :    0.261296    0.084731
  17 C :    0.649862    0.214415
  18 H :   -0.188315    0.043444
  19 H :   -0.169001    0.048873
  20 H :   -0.160862    0.000321
  21 H :   -0.166049    0.012202

  Mayer bond orders larger than 0.100000
B(  0-C ,  1-C ) :   0.1793 B(  0-C ,  2-C ) :  -0.8510 B(  0-C ,  3-C ) :  -0.2022
B(  0-C ,  5-C ) :   0.9342 B(  0-C , 16-C ) :   0.3372 B(  0-C , 21-H ) :   1.4018
B(  1-C ,  2-C ) :  -0.4401 B(  1-C ,  3-C ) :   0.4232 B(  1-C ,  4-C ) :  -0.4993
B(  1-C ,  7-C ) :   0.1091 B(  1-C , 15-H ) :  -0.3912 B(  1-C , 17-C ) :  -0.1454
B(  2-C ,  3-C ) :   0.7896 B(  2-C ,  4-C ) :  -0.2859 B(  2-C ,  5-C ) :   0.2430
B(  2-C , 11-C ) :  -0.2666 B(  2-C , 15-H ) :   2.2767 B(  2-C , 17-C ) :   0.1065
B(  2-C , 20-H ) :  -0.1461 B(  3-C ,  4-C ) :   1.1920 B(  3-C ,  5-C ) :   0.2680
B(  3-C ,  7-C ) :   0.1370 B(  3-C , 12-H ) :  -0.1082 B(  3-C , 13-H ) :  -0.1086
B(  3-C , 15-H ) :  -0.1616 B(  3-C , 20-H ) :   0.1758 B(  3-C , 21-H ) :  -0.2687
B(  4-C ,  5-C ) :   0.5348 B(  4-C ,  7-C ) :   0.3326 B(  4-C , 11-C ) :   0.4064
B(  4-C , 16-C ) :   0.2166 B(  4-C , 21-H ) :  -0.1340 B(  5-C ,  6-H ) :   1.1144
B(  5-C ,  7-C ) :  -0.1997 B(  5-C , 17-C ) :  -0.1191 B(  5-C , 21-H ) :  -0.1736
B(  7-C ,  8-H ) :   1.0707 B(  7-C ,  9-H ) :   0.9901 B(  7-C , 10-H ) :   0.9893
B( 11-C , 12-H ) :   1.0019 B( 11-C , 13-H ) :   1.0023 B( 11-C , 14-H ) :   1.0551
B( 15-H , 16-C ) :  -0.1910 B( 15-H , 20-H ) :  -0.1218 B( 15-H , 21-H ) :   0.1045
B( 16-C , 17-C ) :   0.8136 B( 16-C , 20-H ) :   0.9819 B( 17-C , 18-H ) :   1.0506
B( 17-C , 19-H ) :   0.8786 B( 17-C , 20-H ) :  -0.2229

Dispersion correction           -0.039597296
FINAL SINGLE POINT ENERGY      -388.003969573149

DIPOLE MOMENT
-------------

Method             : SCF
Type of density    : Electron Density
Multiplicity       :   2
Irrep              :   0
Energy             :  -387.9643722769956753 Eh
Relativity type    :
Basis              : AO
                                X                 Y                 Z
Electronic contribution:      5.431852432      -1.226807667      -0.004323979
Nuclear contribution   :     -4.581680445       1.055142183       0.005206672
                        -----------------------------------------
Total Dipole Moment    :      0.850171987      -0.171665485       0.000882693
                        -----------------------------------------
Magnitude (a.u.)       :      0.867330517
Magnitude (Debye)      :      2.204578974

Rotational constants in cm-1:             0.095979             0.029435             0.022714
Rotational constants in MHz :          2877.368924           882.428292           680.936973

                             ****ORCA TERMINATED NORMALLY****
TOTAL RUN TIME: 0 days 0 hours 33 minutes 20 seconds 211 msec
