                         Program Version 6.0.0  -   RELEASE  -
|  1> !r2SCANh opt aug-cc-pVTZ d3 TightSCF SlowConv RIJCOSX defgrid2
|  2>
|  3> %pal
|  4> nprocs 8
|  5> end
|  6>
|  7> %scf
|  8> MaxIter 1500
|  9> end
| 10>
| 11> %maxcore 3500
| 12>
| 13> !CPCM
| 14> %cpcm smd true
| 15> SMDsolvent "MeCN"
| 16> surfacetype gepol_ses
| 17> rsolv 2.19
| 18> end
| 19>
| 20> * xyz 1 2
| 21> C          -0.69806914174773     -1.08130758385803      0.00000478073461
| 22> C          -1.29995911913199      0.21220975823502      0.00000712364871
| 23> C          -0.48713495449795      1.39007645246692     -0.00001560397811
| 24> C           0.87407248196079      1.28097563070640     -0.00003015609287
| 25> C           1.48961473063931     -0.00988444370075     -0.00003464832734
| 26> C           0.66713129411178     -1.18242862965134     -0.00001675195059
| 27> H           1.14787115207094     -2.16374838611022     -0.00001833432844
| 28> C           2.87923367476782     -0.13303827989769     -0.00003947759998
| 29> C           4.09817372516796     -0.24492334399421     -0.00000244744274
| 30> H           5.17420938419188     -0.34031758843355     -0.00000256865577
| 31> H           1.50568477881681      2.17231925078041     -0.00004562485067
| 32> H          -0.99220253079888      2.35905562684180     -0.00001378344560
| 33> O          -2.58101948918323      0.42008257874155      0.00003691245038
| 34> C          -3.53711041258472     -0.64087278516494      0.00007811011347
| 35> H          -4.51842922650600     -0.15013878054896      0.00011237958636
| 36> H          -3.42139067434806     -1.25399713854605     -0.90847216906212
| 37> H          -3.42131652654994     -1.25398175148381      0.90862972609483
| 38> H          -1.31361454637877     -1.98259848638256      0.00002453310588
| 39> *
| 40>
| 41>                          ****END OF INPUT****
 Total Charge           Charge          ....    1
 Multiplicity           Mult            ....    2
 Number of Electrons    NEL             ....   69
Dispersion correction           -0.005729297
FINAL SINGLE POINT ENERGY      -422.611185742824
Dispersion correction             ... done (  0.1 sec)
Dispersion correction           -0.005759277
FINAL SINGLE POINT ENERGY      -422.613075960404
Dispersion correction             ... done (  0.1 sec)
Dispersion correction           -0.005764545
FINAL SINGLE POINT ENERGY      -422.613162484139
Dispersion correction             ... done (  0.1 sec)
Dispersion correction           -0.005765283
FINAL SINGLE POINT ENERGY      -422.613181842599
Dispersion correction             ... done (  0.1 sec)
Dispersion correction           -0.005764834
FINAL SINGLE POINT ENERGY      -422.613188396359
Dispersion correction             ... done (  0.1 sec)
                    ***********************HURRAY********************

CARTESIAN COORDINATES (ANGSTROEM)
---------------------------------
  C     -0.708558   -1.064160   -0.002539
  C     -1.290481    0.228973   -0.000384
  C     -0.481274    1.399588   -0.001159
  C      0.870219    1.281743   -0.001306
  C      1.467532   -0.008962   -0.001242
  C      0.646496   -1.173057   -0.002722
  H      1.117373   -2.144537   -0.003513
  C      2.849874   -0.140319    0.000804
  C      4.055600   -0.257703    0.002741
  H      5.117215   -0.357853    0.004030
  H      1.503035    2.155997   -0.001689
  H     -0.970991    2.362247   -0.000801
  O     -2.575001    0.445229    0.002535
  C     -3.503769   -0.662170    0.002043
  H     -4.484356   -0.203749    0.000759
  H     -3.358480   -1.259084   -0.894218
  H     -3.360624   -1.258543    0.899157
  H     -1.328063   -1.946160   -0.002294

 Multiplicity           Mult            ....    2
 Number of Electrons    NEL             ....   69
 Basis Dimension        Dim             ....  644

ORBITAL ENERGIES
----------------
                 SPIN UP ORBITALS
  NO   OCC          E(Eh)            E(eV)
   0   1.0000     -19.227124      -523.1966
   1   1.0000     -10.293902      -280.1113
   2   1.0000     -10.248438      -278.8742
   3   1.0000     -10.222116      -278.1579
   4   1.0000     -10.213484      -277.9230
   5   1.0000     -10.208955      -277.7998
   6   1.0000     -10.208054      -277.7753
   7   1.0000     -10.206533      -277.7339
   8   1.0000     -10.206379      -277.7297
   9   1.0000     -10.202982      -277.6373
  10   1.0000      -1.150815       -31.3153
  11   1.0000      -0.917530       -24.9673
  12   1.0000      -0.837489       -22.7892
  13   1.0000      -0.806277       -21.9399
  14   1.0000      -0.782901       -21.3038
  15   1.0000      -0.739613       -20.1259
  16   1.0000      -0.662118       -18.0171
  17   1.0000      -0.644190       -17.5293
  18   1.0000      -0.584382       -15.9018
  19   1.0000      -0.562922       -15.3179
  20   1.0000      -0.530718       -14.4416
  21   1.0000      -0.527866       -14.3640
  22   1.0000      -0.513572       -13.9750
  23   1.0000      -0.472119       -12.8470
  24   1.0000      -0.459880       -12.5140
  25   1.0000      -0.443811       -12.0767
  26   1.0000      -0.431194       -11.7334
  27   1.0000      -0.425783       -11.5862
  28   1.0000      -0.394092       -10.7238
  29   1.0000      -0.391182       -10.6446
  30   1.0000      -0.357921        -9.7395
  31   1.0000      -0.336301        -9.1512
  32   1.0000      -0.313322        -8.5259
  33   1.0000      -0.304917        -8.2972
  34   1.0000      -0.267957        -7.2915
  35   0.0000      -0.094127        -2.5613
  36   0.0000      -0.063148        -1.7183
  37   0.0000      -0.005462        -0.1486
  38   0.0000       0.006274         0.1707
  39   0.0000       0.018309         0.4982

                 SPIN DOWN ORBITALS
  NO   OCC          E(Eh)            E(eV)
   0   1.0000     -19.220728      -523.0226
   1   1.0000     -10.291450      -280.0446
   2   1.0000     -10.242487      -278.7122
   3   1.0000     -10.222312      -278.1632
   4   1.0000     -10.214029      -277.9379
   5   1.0000     -10.209334      -277.8101
   6   1.0000     -10.205833      -277.7148
   7   1.0000     -10.204759      -277.6856
   8   1.0000     -10.204315      -277.6735
   9   1.0000     -10.201734      -277.6033
  10   1.0000      -1.140825       -31.0434
  11   1.0000      -0.909730       -24.7550
  12   1.0000      -0.828428       -22.5427
  13   1.0000      -0.804156       -21.8822
  14   1.0000      -0.774468       -21.0743
  15   1.0000      -0.731013       -19.8919
  16   1.0000      -0.657416       -17.8892
  17   1.0000      -0.640144       -17.4192
  18   1.0000      -0.581574       -15.8254
  19   1.0000      -0.559364       -15.2211
  20   1.0000      -0.528908       -14.3923
  21   1.0000      -0.524031       -14.2596
  22   1.0000      -0.494973       -13.4689
  23   1.0000      -0.469536       -12.7767
  24   1.0000      -0.459199       -12.4954
  25   1.0000      -0.441860       -12.0236
  26   1.0000      -0.424852       -11.5608
  27   1.0000      -0.413982       -11.2650
  28   1.0000      -0.392631       -10.6840
  29   1.0000      -0.372383       -10.1330
  30   1.0000      -0.354811        -9.6549
  31   1.0000      -0.312179        -8.4948
  32   1.0000      -0.310603        -8.4519
  33   1.0000      -0.299684        -8.1548
  34   0.0000      -0.205509        -5.5922
  35   0.0000      -0.065999        -1.7959
  36   0.0000      -0.051635        -1.4051
  37   0.0000      -0.005072        -0.1380
  38   0.0000       0.007081         0.1927

MULLIKEN ATOMIC CHARGES AND SPIN POPULATIONS
--------------------------------------------
   0 C :   -0.114400    0.090495
   1 C :    1.465671    0.122435
   2 C :   -0.756187    0.131397
   3 C :   -1.122262   -0.125254
   4 C :    1.672711    0.435671
   5 C :   -1.198809   -0.065580
   6 H :   -0.311815   -0.005778
   7 C :    1.295398   -0.151679
   8 C :   -0.726557    0.357616
   9 H :    0.323669    0.010676
  10 H :   -0.272421   -0.009721
  11 H :    0.627241    0.008825
  12 O :   -0.657944    0.185692
  13 C :   -0.659856   -0.017365
  14 H :    0.254361   -0.001055
  15 H :    0.309510    0.008092
  16 H :    0.309363    0.008221
  17 H :    0.562327    0.017315
Sum of atomic charges         :    1.0000000

LOEWDIN ATOMIC CHARGES AND SPIN POPULATIONS
-------------------------------------------
   0 C :    0.289475    0.072901
   1 C :   -0.329761    0.128632
   2 C :    0.283457    0.079816
   3 C :    0.261554    0.023706
   4 C :   -0.154027    0.142037
   5 C :    0.271863    0.041810
   6 H :   -0.142192   -0.001744
   7 C :    0.056218    0.067102
   8 C :    0.511078    0.201383
   9 H :   -0.243311    0.048217
  10 H :   -0.145415   -0.006369
  11 H :   -0.148642    0.012749
  12 O :    0.664563    0.155859
  13 C :    0.463527    0.015167
  14 H :   -0.162682   -0.000543
  15 H :   -0.154377    0.004176
  16 H :   -0.153836    0.004194
  17 H :   -0.167493    0.010907

  Mayer bond orders larger than 0.100000
B(  0-C ,  1-C ) :   0.7937 B(  0-C ,  2-C ) :   0.1431 B(  0-C ,  4-C ) :   0.7723
B(  0-C ,  5-C ) :   1.1582 B(  0-C ,  6-H ) :  -0.1905 B(  0-C ,  7-C ) :  -0.2397
B(  0-C ,  8-C ) :  -0.1147 B(  0-C , 10-H ) :  -0.1233 B(  0-C , 11-H ) :  -0.1155
B(  0-C , 17-H ) :   0.2936 B(  1-C ,  2-C ) :   0.5859 B(  1-C ,  3-C ) :  -0.5515
B(  1-C ,  4-C ) :  -0.1964 B(  1-C ,  5-C ) :  -0.5373 B(  1-C ,  7-C ) :   0.3118
B(  1-C ,  8-C ) :   0.1189 B(  1-C , 10-H ) :  -0.1074 B(  1-C , 11-H ) :   0.1970
B(  1-C , 12-O ) :   0.3973 B(  1-C , 17-H ) :   0.1737 B(  2-C ,  3-C ) :   1.4319
B(  2-C ,  4-C ) :   0.5750 B(  2-C ,  7-C ) :  -0.1145 B(  2-C , 11-H ) :   0.1865
B(  2-C , 12-O ) :   0.3274 B(  3-C ,  5-C ) :  -0.5845 B(  3-C ,  6-H ) :   0.2646
B(  3-C ,  7-C ) :   0.4240 B(  3-C , 10-H ) :   2.1530 B(  4-C ,  5-C ) :   0.1062
B(  4-C ,  6-H ) :  -0.1343 B(  4-C ,  8-C ) :   0.8392 B(  4-C , 12-O ) :   0.1250
B(  5-C ,  6-H ) :   2.2617 B(  5-C ,  7-C ) :   0.3275 B(  5-C ,  8-C ) :  -0.1723
B(  5-C , 10-H ) :   0.2380 B(  6-H ,  7-C ) :  -0.3549 B(  6-H ,  8-C ) :  -0.4008
B(  6-H , 10-H ) :   0.4977 B(  6-H , 11-H ) :  -0.1069 B(  6-H , 17-H ) :  -0.1104
B(  7-C ,  8-C ) :   1.7221 B(  7-C ,  9-H ) :  -0.3016 B(  7-C , 10-H ) :  -0.4431
B(  7-C , 11-H ) :   0.1201 B(  7-C , 17-H ) :   0.1391 B(  8-C ,  9-H ) :   1.2597
B(  8-C , 10-H ) :  -0.4037 B(  8-C , 11-H ) :   0.1654 B(  8-C , 17-H ) :   0.2387
B( 10-H , 11-H ) :  -0.1135 B( 12-O , 13-C ) :   0.9561 B( 13-C , 14-H ) :   0.9822
B( 13-C , 15-H ) :   0.8801 B( 13-C , 16-H ) :   0.8804

Dispersion correction           -0.005764634
FINAL SINGLE POINT ENERGY      -422.613189446592

DIPOLE MOMENT
-------------

Method             : SCF
Type of density    : Electron Density
Multiplicity       :   2
Irrep              :   0
Energy             :  -422.6074248122437780 Eh
Relativity type    :
Basis              : AO
                                X                 Y                 Z
Electronic contribution:      5.097485366       1.785047019      -0.001697337
Nuclear contribution   :     -5.440999202      -2.463701896       0.001561054
                        -----------------------------------------
Total Dipole Moment    :     -0.343513836      -0.678654877      -0.000136283
                        -----------------------------------------
Magnitude (a.u.)       :      0.760640662
Magnitude (Debye)      :      1.933394914

Rotational constants in cm-1:             0.157206             0.024264             0.021105
Rotational constants in MHz :          4712.931558           727.421559           632.717587

                             ****ORCA TERMINATED NORMALLY****
TOTAL RUN TIME: 0 days 0 hours 33 minutes 17 seconds 796 msec
