                         Program Version 6.0.0  -   RELEASE  -
|  1> !PBE0 aug-cc-pVTZ d3 TightSCF SlowConv RIJCOSX defgrid2
|  2>
|  3> %pal
|  4> nprocs 15
|  5> end
|  6>
|  7> %scf
|  8> MaxIter 1500
|  9> end
| 10>
| 11> %maxcore 3500
| 12>
| 13> !CPCM
| 14> %cpcm smd true
| 15> SMDsolvent "WATER"
| 16> surfacetype gepol_ses
| 17> rsolv 1.40
| 18> end
| 19>
| 20> * xyz -1 2
| 21> C           0.00000004903308      0.00000285676658     -0.07927677165041
| 22> C          -1.16509262301003     -0.35747694639887      0.71050337241250
| 23> C           1.16509408020432      0.35747595685912      0.71050209383188
| 24> H          -2.06362612463752     -0.63312787458135      0.14412716721423
| 25> H           2.06363121454948      0.63312802636862      0.14412668715351
| 26> C          -1.16509507944368     -0.35747268029138      2.08215495800193
| 27> C           1.16509160172280      0.35747686687021      2.08215370735606
| 28> H          -2.06363192155032     -0.63312031850306      2.64853168475760
| 29> H           2.06362610689310      0.63313254757272      2.64853030477196
| 30> C           0.00000131049034     -0.00000637822162      2.87193489848665
| 31> O           0.00000216772010     -0.00000733437022      4.12586654778909
| 32> O          -0.00000078197165     -0.00000472207076     -1.33320665012500
| 33> *
| 34>
| 35>                          ****END OF INPUT****

CARTESIAN COORDINATES (ANGSTROEM)
---------------------------------
  C      0.000000    0.000003   -0.079277
  C     -1.165093   -0.357477    0.710503
  C      1.165094    0.357476    0.710502
  H     -2.063626   -0.633128    0.144127
  H      2.063631    0.633128    0.144127
  C     -1.165095   -0.357473    2.082155
  C      1.165092    0.357477    2.082154
  H     -2.063632   -0.633120    2.648532
  H      2.063626    0.633133    2.648530
  C      0.000001   -0.000006    2.871935
  O      0.000002   -0.000007    4.125867
  O     -0.000001   -0.000005   -1.333207

 Total Charge           Charge          ....   -1
 Multiplicity           Mult            ....    2
 Number of Electrons    NEL             ....   57
 Basis Dimension        Dim             ....  460

ORBITAL ENERGIES
----------------
                 SPIN UP ORBITALS
  NO   OCC          E(Eh)            E(eV)
   0   1.0000     -19.175966      -521.8046
   1   1.0000     -19.175964      -521.8045
   2   1.0000     -10.282020      -279.7880
   3   1.0000     -10.281989      -279.7871
   4   1.0000     -10.224793      -278.2308
   5   1.0000     -10.224765      -278.2300
   6   1.0000     -10.224048      -278.2105
   7   1.0000     -10.224019      -278.2097
   8   1.0000      -1.043372       -28.3916
   9   1.0000      -1.041377       -28.3373
  10   1.0000      -0.848903       -23.0998
  11   1.0000      -0.766178       -20.8488
  12   1.0000      -0.709224       -19.2990
  13   1.0000      -0.622704       -16.9446
  14   1.0000      -0.585581       -15.9345
  15   1.0000      -0.495009       -13.4699
  16   1.0000      -0.489444       -13.3184
  17   1.0000      -0.465985       -12.6801
  18   1.0000      -0.433742       -11.8027
  19   1.0000      -0.427096       -11.6219
  20   1.0000      -0.421960       -11.4821
  21   1.0000      -0.405359       -11.0304
  22   1.0000      -0.397718       -10.8225
  23   1.0000      -0.370845       -10.0912
  24   1.0000      -0.307505        -8.3676
  25   1.0000      -0.275150        -7.4872
  26   1.0000      -0.269597        -7.3361
  27   1.0000      -0.260239        -7.0815
  28   1.0000      -0.182230        -4.9587
  29   0.0000      -0.010714        -0.2915
  30   0.0000       0.007257         0.1975
  31   0.0000       0.020986         0.5711
  32   0.0000       0.021276         0.5790
  33   0.0000       0.022644         0.6162

                 SPIN DOWN ORBITALS
  NO   OCC          E(Eh)            E(eV)
   0   1.0000     -19.169029      -521.6158
   1   1.0000     -19.169027      -521.6157
   2   1.0000     -10.280351      -279.7426
   3   1.0000     -10.280323      -279.7418
   4   1.0000     -10.223673      -278.2003
   5   1.0000     -10.223645      -278.1995
   6   1.0000     -10.222911      -278.1796
   7   1.0000     -10.222887      -278.1789
   8   1.0000      -1.030783       -28.0490
   9   1.0000      -1.028578       -27.9890
  10   1.0000      -0.841694       -22.9037
  11   1.0000      -0.763040       -20.7634
  12   1.0000      -0.696176       -18.9439
  13   1.0000      -0.617627       -16.8065
  14   1.0000      -0.580702       -15.8017
  15   1.0000      -0.489933       -13.3317
  16   1.0000      -0.487263       -13.2591
  17   1.0000      -0.460827       -12.5397
  18   1.0000      -0.421797       -11.4777
  19   1.0000      -0.421024       -11.4566
  20   1.0000      -0.408954       -11.1282
  21   1.0000      -0.394016       -10.7217
  22   1.0000      -0.371301       -10.1036
  23   1.0000      -0.368199       -10.0192
  24   1.0000      -0.270752        -7.3675
  25   1.0000      -0.265935        -7.2365
  26   1.0000      -0.263441        -7.1686
  27   1.0000      -0.254552        -6.9267
  28   0.0000      -0.093197        -2.5360
  29   0.0000       0.006672         0.1815
  30   0.0000       0.007799         0.2122
  31   0.0000       0.021257         0.5784
  32   0.0000       0.021499         0.5850

MULLIKEN ATOMIC CHARGES AND SPIN POPULATIONS
--------------------------------------------
   0 C :    0.871198    0.113234
   1 C :   -0.673240    0.070872
   2 C :   -0.673431    0.070878
   3 H :    0.543675    0.002293
   4 H :    0.543091    0.002271
   5 C :   -0.672439    0.070934
   6 C :   -0.672199    0.070760
   7 H :    0.543085    0.002313
   8 H :    0.542936    0.002345
   9 C :    0.871320    0.113314
  10 O :   -1.112224    0.240385
  11 O :   -1.111774    0.240401
Sum of atomic charges         :   -1.0000000

LOEWDIN ATOMIC CHARGES AND SPIN POPULATIONS
-------------------------------------------
   0 C :   -0.708680    0.124594
   1 C :    0.140271    0.073405
   2 C :    0.140273    0.073412
   3 H :   -0.191245    0.007280
   4 H :   -0.191239    0.007281
   5 C :    0.140274    0.073411
   6 C :    0.140272    0.073405
   7 H :   -0.191240    0.007281
   8 H :   -0.191244    0.007280
   9 C :   -0.708679    0.124595
  10 O :    0.310618    0.214027
  11 O :    0.310620    0.214027

  Mayer bond orders larger than 0.100000
B(  0-C ,  1-C ) :   1.1176 B(  0-C ,  2-C ) :   1.1176 B(  0-C ,  5-C ) :  -0.1045
B(  0-C ,  6-C ) :  -0.1052 B(  0-C ,  9-C ) :   0.1879 B(  0-C , 11-O ) :   0.5526
B(  1-C ,  2-C ) :   0.3861 B(  1-C ,  3-H ) :   0.3411 B(  1-C ,  5-C ) :   1.5884
B(  1-C ,  6-C ) :  -0.1181 B(  1-C ,  9-C ) :  -0.1043 B(  1-C , 11-O ) :   0.1747
B(  2-C ,  4-H ) :   0.3414 B(  2-C ,  5-C ) :  -0.1191 B(  2-C ,  6-C ) :   1.5892
B(  2-C ,  9-C ) :  -0.1047 B(  2-C , 11-O ) :   0.1766 B(  5-C ,  6-C ) :   0.3849
B(  5-C ,  7-H ) :   0.3417 B(  5-C ,  9-C ) :   1.1171 B(  5-C , 10-O ) :   0.1759
B(  6-C ,  8-H ) :   0.3421 B(  6-C ,  9-C ) :   1.1187 B(  6-C , 10-O ) :   0.1754
B(  9-C , 10-O ) :   0.5512

Dispersion correction           -0.010367010
FINAL SINGLE POINT ENERGY      -381.332758983939

DIPOLE MOMENT
-------------

Method             : SCF
Type of density    : Electron Density
Multiplicity       :   2
Irrep              :   0
Energy             :  -381.3223919743160195 Eh
Relativity type    :
Basis              : AO
                                X                 Y                 Z
Electronic contribution:     -0.000003814      -0.000005829      -0.000009658
Nuclear contribution   :     -0.000001132       0.000017886      -0.000000443
                        -----------------------------------------
Total Dipole Moment    :     -0.000004946       0.000012057      -0.000010101
                        -----------------------------------------
Magnitude (a.u.)       :      0.000016489
Magnitude (Debye)      :      0.000041911

Rotational constants in cm-1:             0.187010             0.052742             0.041140
Rotational constants in MHz :          5606.406459          1581.174709          1233.336765

                             ****ORCA TERMINATED NORMALLY****
TOTAL RUN TIME: 0 days 0 hours 2 minutes 55 seconds 733 msec
