                         Program Version 6.0.0  -   RELEASE  -
|  1> !r2SCANh aug-cc-pVTZ d3 TightSCF SlowConv RIJCOSX defgrid2
|  2>
|  3> %pal
|  4> nprocs 4
|  5> end
|  6>
|  7> %scf
|  8> MaxIter 1500
|  9> end
| 10>
| 11> %maxcore 3000
| 12>
| 13> !CPCM
| 14> %cpcm smd true
| 15> SMDsolvent "MeCN"
| 16> surfacetype gepol_ses
| 17> rsolv 2.19
| 18> end
| 19>
| 20> * xyz 1 2
| 21> C          -1.18929710111744     -1.09285531809476     -0.10819644925615
| 22> C           0.00589173329489     -1.79822529332208     -0.13401141651239
| 23> C           1.19808208156691     -1.09105158000585     -0.06434654491920
| 24> C           1.21365138858984      0.35785054897918      0.03424223925553
| 25> C           2.51775471479426      1.05048436689676      0.10640427638312
| 26> H           2.41427085604479      2.14280676868630      0.17575377847974
| 27> H           3.09603271561737      0.68522468132195      0.97881748737636
| 28> H           3.13366664954396      0.79986441621953     -0.78044888567292
| 29> C          -0.00007800896972      1.04312717812580      0.05823770417539
| 30> C          -1.21092205755184      0.35593020163616     -0.01041203166499
| 31> C          -2.51780389192698      1.04678727365115      0.01197629521183
| 32> H          -3.09403194335214      0.80285450596818     -0.90319738383305
| 33> H          -2.41838300212946      2.13863620693826      0.09339400927998
| 34> H          -3.13338924600238      0.67411631081689      0.85502734287022
| 35> H          -0.00212028703487      2.13377489791986      0.13228993338047
| 36> H           2.15561414738440     -1.62182776088860     -0.08279661789994
| 37> H           0.00790773530576     -2.88854491189358     -0.20783219258290
| 38> H          -2.14457188405735     -1.62532769295516     -0.16174234407112
| 39> *
| 40>
| 41>                          ****END OF INPUT****

CARTESIAN COORDINATES (ANGSTROEM)
---------------------------------
  C     -1.189297   -1.092855   -0.108196
  C      0.005892   -1.798225   -0.134011
  C      1.198082   -1.091052   -0.064347
  C      1.213651    0.357851    0.034242
  C      2.517755    1.050484    0.106404
  H      2.414271    2.142807    0.175754
  H      3.096033    0.685225    0.978817
  H      3.133667    0.799864   -0.780449
  C     -0.000078    1.043127    0.058238
  C     -1.210922    0.355930   -0.010412
  C     -2.517804    1.046787    0.011976
  H     -3.094032    0.802855   -0.903197
  H     -2.418383    2.138636    0.093394
  H     -3.133389    0.674116    0.855027
  H     -0.002120    2.133775    0.132290
  H      2.155614   -1.621828   -0.082797
  H      0.007908   -2.888545   -0.207832
  H     -2.144572   -1.625328   -0.161742

 Total Charge           Charge          ....    1
 Multiplicity           Mult            ....    2
 Number of Electrons    NEL             ....   57
 Basis Dimension        Dim             ....  598

ORBITAL ENERGIES
----------------
                 SPIN UP ORBITALS
  NO   OCC          E(Eh)            E(eV)
   0   1.0000     -10.241992      -278.6988
   1   1.0000     -10.241946      -278.6975
   2   1.0000     -10.229023      -278.3459
   3   1.0000     -10.228980      -278.3447
   4   1.0000     -10.197325      -277.4833
   5   1.0000     -10.191468      -277.3239
   6   1.0000     -10.172751      -276.8146
   7   1.0000     -10.172730      -276.8141
   8   1.0000      -0.913014       -24.8444
   9   1.0000      -0.831074       -22.6147
  10   1.0000      -0.805535       -21.9197
  11   1.0000      -0.721109       -19.6224
  12   1.0000      -0.715630       -19.4733
  13   1.0000      -0.629555       -17.1311
  14   1.0000      -0.606523       -16.5043
  15   1.0000      -0.529973       -14.4213
  16   1.0000      -0.505251       -13.7486
  17   1.0000      -0.470778       -12.8105
  18   1.0000      -0.453904       -12.3514
  19   1.0000      -0.442082       -12.0297
  20   1.0000      -0.429221       -11.6797
  21   1.0000      -0.429127       -11.6771
  22   1.0000      -0.405803       -11.0424
  23   1.0000      -0.389330       -10.5942
  24   1.0000      -0.378720       -10.3055
  25   1.0000      -0.367929       -10.0119
  26   1.0000      -0.359794        -9.7905
  27   1.0000      -0.295256        -8.0343
  28   1.0000      -0.291305        -7.9268
  29   0.0000      -0.095452        -2.5974
  30   0.0000      -0.055517        -1.5107
  31   0.0000       0.008333         0.2267
  32   0.0000       0.022950         0.6245
  33   0.0000       0.024358         0.6628

                 SPIN DOWN ORBITALS
  NO   OCC          E(Eh)            E(eV)
   0   1.0000     -10.238101      -278.5929
   1   1.0000     -10.238064      -278.5919
   2   1.0000     -10.222311      -278.1632
   3   1.0000     -10.222276      -278.1623
   4   1.0000     -10.200319      -277.5648
   5   1.0000     -10.193045      -277.3669
   6   1.0000     -10.172615      -276.8109
   7   1.0000     -10.172594      -276.8104
   8   1.0000      -0.901049       -24.5188
   9   1.0000      -0.816059       -22.2061
  10   1.0000      -0.803104       -21.8536
  11   1.0000      -0.720794       -19.6138
  12   1.0000      -0.701493       -19.0886
  13   1.0000      -0.625120       -17.0104
  14   1.0000      -0.598328       -16.2813
  15   1.0000      -0.527478       -14.3534
  16   1.0000      -0.502749       -13.6805
  17   1.0000      -0.467012       -12.7081
  18   1.0000      -0.441582       -12.0160
  19   1.0000      -0.434689       -11.8285
  20   1.0000      -0.425751       -11.5853
  21   1.0000      -0.417220       -11.3531
  22   1.0000      -0.404805       -11.0153
  23   1.0000      -0.387830       -10.5534
  24   1.0000      -0.366307        -9.9677
  25   1.0000      -0.357657        -9.7323
  26   1.0000      -0.357280        -9.7221
  27   1.0000      -0.287255        -7.8166
  28   0.0000      -0.214923        -5.8484
  29   0.0000      -0.047409        -1.2901
  30   0.0000      -0.042479        -1.1559
  31   0.0000       0.009827         0.2674
  32   0.0000       0.024108         0.6560

MULLIKEN ATOMIC CHARGES AND SPIN POPULATIONS
--------------------------------------------
   0 C :   -0.736035    0.371249
   1 C :   -0.678850   -0.239461
   2 C :   -0.737717    0.370779
   3 C :    1.451377    0.268735
   4 C :   -0.688861   -0.049697
   5 H :    0.168878   -0.005231
   6 H :    0.240010    0.026261
   7 H :    0.240868    0.025868
   8 C :   -0.719229   -0.117672
   9 C :    1.451888    0.268051
  10 C :   -0.688277   -0.049343
  11 H :    0.241341    0.026302
  12 H :    0.169256   -0.005210
  13 H :    0.239104    0.025608
  14 H :   -0.078187   -0.010881
  15 H :    0.320235    0.052892
  16 H :    0.486205   -0.011245
  17 H :    0.317993    0.052994
Sum of atomic charges         :    1.0000000

LOEWDIN ATOMIC CHARGES AND SPIN POPULATIONS
-------------------------------------------
   0 C :    0.312746    0.206501
   1 C :    0.275853    0.031665
   2 C :    0.312697    0.206267
   3 C :   -0.051910    0.157942
   4 C :    0.627527    0.051057
   5 H :   -0.147348    0.002149
   6 H :   -0.127617    0.013706
   7 H :   -0.127807    0.013588
   8 C :    0.291894    0.021451
   9 C :   -0.052028    0.157738
  10 C :    0.627508    0.050952
  11 H :   -0.127525    0.013736
  12 H :   -0.147390    0.002146
  13 H :   -0.127910    0.013510
  14 H :   -0.144127   -0.008295
  15 H :   -0.124550    0.040376
  16 H :   -0.145486   -0.014926
  17 H :   -0.124527    0.040436

  Mayer bond orders larger than 0.100000
B(  0-C ,  1-C ) :   1.2063 B(  0-C ,  3-C ) :  -0.2559 B(  0-C ,  8-C ) :  -0.1258
B(  0-C ,  9-C ) :   0.4718 B(  0-C , 10-C ) :   0.1686 B(  0-C , 17-H ) :   0.9068
B(  1-C ,  2-C ) :   1.2027 B(  1-C ,  3-C ) :   0.1224 B(  1-C ,  9-C ) :   0.1215
B(  1-C , 16-H ) :   0.4818 B(  2-C ,  3-C ) :   0.4722 B(  2-C ,  4-C ) :   0.1702
B(  2-C ,  8-C ) :  -0.1251 B(  2-C ,  9-C ) :  -0.2564 B(  2-C , 15-H ) :   0.9038
B(  3-C ,  4-C ) :   0.2445 B(  3-C ,  8-C ) :   0.3294 B(  3-C ,  9-C ) :   0.4408
B(  3-C , 10-C ) :   0.1121 B(  3-C , 14-H ) :  -0.1639 B(  3-C , 17-H ) :  -0.1123
B(  4-C ,  5-H ) :   1.0519 B(  4-C ,  6-H ) :   0.9752 B(  4-C ,  7-H ) :   0.9732
B(  4-C ,  8-C ) :  -0.1579 B(  4-C ,  9-C ) :   0.1119 B(  8-C ,  9-C ) :   0.3301
B(  8-C , 10-C ) :  -0.1571 B(  8-C , 14-H ) :   1.5318 B(  8-C , 15-H ) :   0.1059
B(  8-C , 17-H ) :   0.1067 B(  9-C , 10-C ) :   0.2441 B(  9-C , 14-H ) :  -0.1630
B(  9-C , 15-H ) :  -0.1117 B( 10-C , 11-H ) :   0.9730 B( 10-C , 12-H ) :   1.0522
B( 10-C , 13-H ) :   0.9758

Dispersion correction           -0.005339750
FINAL SINGLE POINT ENERGY      -310.576241497351

DIPOLE MOMENT
-------------

Method             : SCF
Type of density    : Electron Density
Multiplicity       :   2
Irrep              :   0
Energy             :  -310.5709017473844824 Eh
Relativity type    :
Basis              : AO
                                X                 Y                 Z
Electronic contribution:      0.006711751      -3.166652077      -0.215942846
Nuclear contribution   :     -0.005606480       2.888237007       0.196904737
                        -----------------------------------------
Total Dipole Moment    :      0.001105271      -0.278415069      -0.019038109
                        -----------------------------------------
Magnitude (a.u.)       :      0.279067415
Magnitude (Debye)      :      0.709332997

Rotational constants in cm-1:             0.117442             0.059099             0.039898
Rotational constants in MHz :          3520.819355          1771.755031          1196.125429

                             ****ORCA TERMINATED NORMALLY****
TOTAL RUN TIME: 0 days 0 hours 7 minutes 26 seconds 373 msec
