                         Program Version 6.0.0  -   RELEASE  -
|  1> !PBE0 freq aug-cc-pVTZ d3 TightSCF SlowConv RIJCOSX defgrid2
|  2>
|  3> %pal
|  4> nprocs 12
|  5> end
|  6>
|  7> %scf
|  8> MaxIter 1500
|  9> end
| 10>
| 11> %maxcore 5000
| 12>
| 13> !CPCM
| 14> %cpcm smd true
| 15> SMDsolvent "MeCN"
| 16> surfacetype gepol_ses
| 17> rsolv 2.19
| 18> end
| 19>
| 20> * xyz 1 2
| 21> C          -0.70873214968839     -1.06385464669303     -0.00236936178152
| 22> C          -1.29230177934923      0.22910340064108     -0.00039494156785
| 23> C          -0.48182597226192      1.39933380294942     -0.00087484579863
| 24> C           0.86882442353281      1.28061867550054     -0.00111887851576
| 25> C           1.46495367015680     -0.00923135951044     -0.00121869975751
| 26> C           0.64553163102662     -1.17247283792984     -0.00253266481188
| 27> H           1.11718996074589     -2.14545524012575     -0.00326095465956
| 28> C           2.85014592386048     -0.14030943558968      0.00059249818695
| 29> C           4.05516695559659     -0.25725316514713      0.00231127699690
| 30> H           5.11951029591224     -0.35743206814337      0.00340216294341
| 31> H           1.50295622774901      2.15600774293328     -0.00137126536051
| 32> H          -0.97101450265842      2.36417361224731     -0.00003507937159
| 33> O          -2.57369386688086      0.44198722871565      0.00206145274520
| 34> C          -3.49933439989844     -0.65903663937085      0.00182986743393
| 35> H          -4.48362796273978     -0.20265043256057     -0.00044064386388
| 36> H          -3.35758217804964     -1.26041520469620     -0.89493985377432
| 37> H          -3.36084422322525     -1.25838654718011      0.90061985780170
| 38> H          -1.32957745382848     -1.94724478604030     -0.00205792684508
| 39> *
| 40>
| 41>                          ****END OF INPUT****

CARTESIAN COORDINATES (ANGSTROEM)
---------------------------------
  C     -0.708732   -1.063855   -0.002369
  C     -1.292302    0.229103   -0.000395
  C     -0.481826    1.399334   -0.000875
  C      0.868824    1.280619   -0.001119
  C      1.464954   -0.009231   -0.001219
  C      0.645532   -1.172473   -0.002533
  H      1.117190   -2.145455   -0.003261
  C      2.850146   -0.140309    0.000592
  C      4.055167   -0.257253    0.002311
  H      5.119510   -0.357432    0.003402
  H      1.502956    2.156008   -0.001371
  H     -0.971015    2.364174   -0.000035
  O     -2.573694    0.441987    0.002061
  C     -3.499334   -0.659037    0.001830
  H     -4.483628   -0.202650   -0.000441
  H     -3.357582   -1.260415   -0.894940
  H     -3.360844   -1.258387    0.900620
  H     -1.329577   -1.947245   -0.002058

 Total Charge           Charge          ....    1
 Multiplicity           Mult            ....    2
 Number of Electrons    NEL             ....   69
 Basis Dimension        Dim             ....  644

ORBITAL ENERGIES
----------------
                 SPIN UP ORBITALS
  NO   OCC          E(Eh)            E(eV)
   0   1.0000     -19.320159      -525.7282
   1   1.0000     -10.364075      -282.0208
   2   1.0000     -10.318910      -280.7918
   3   1.0000     -10.290760      -280.0258
   4   1.0000     -10.283198      -279.8200
   5   1.0000     -10.278848      -279.7017
   6   1.0000     -10.278140      -279.6824
   7   1.0000     -10.276622      -279.6411
   8   1.0000     -10.276561      -279.6394
   9   1.0000     -10.272333      -279.5244
  10   1.0000      -1.180353       -32.1190
  11   1.0000      -0.943832       -25.6830
  12   1.0000      -0.862298       -23.4643
  13   1.0000      -0.831129       -22.6162
  14   1.0000      -0.807807       -21.9815
  15   1.0000      -0.764638       -20.8069
  16   1.0000      -0.686949       -18.6928
  17   1.0000      -0.667369       -18.1600
  18   1.0000      -0.608460       -16.5570
  19   1.0000      -0.587870       -15.9967
  20   1.0000      -0.557341       -15.1660
  21   1.0000      -0.551504       -15.0072
  22   1.0000      -0.540846       -14.7172
  23   1.0000      -0.494934       -13.4678
  24   1.0000      -0.483436       -13.1549
  25   1.0000      -0.468586       -12.7509
  26   1.0000      -0.452250       -12.3063
  27   1.0000      -0.449749       -12.2383
  28   1.0000      -0.417147       -11.3511
  29   1.0000      -0.412072       -11.2130
  30   1.0000      -0.381448       -10.3797
  31   1.0000      -0.355855        -9.6833
  32   1.0000      -0.333978        -9.0880
  33   1.0000      -0.321637        -8.7522
  34   1.0000      -0.281788        -7.6678
  35   0.0000      -0.079109        -2.1527
  36   0.0000      -0.047763        -1.2997
  37   0.0000      -0.002292        -0.0624
  38   0.0000       0.006472         0.1761
  39   0.0000       0.008949         0.2435

                 SPIN DOWN ORBITALS
  NO   OCC          E(Eh)            E(eV)
   0   1.0000     -19.314679      -525.5791
   1   1.0000     -10.361747      -281.9575
   2   1.0000     -10.313616      -280.6477
   3   1.0000     -10.290940      -280.0307
   4   1.0000     -10.283572      -279.8302
   5   1.0000     -10.279059      -279.7074
   6   1.0000     -10.275209      -279.6026
   7   1.0000     -10.275151      -279.6011
   8   1.0000     -10.274828      -279.5923
   9   1.0000     -10.272388      -279.5259
  10   1.0000      -1.170097       -31.8400
  11   1.0000      -0.936466       -25.4825
  12   1.0000      -0.853833       -23.2340
  13   1.0000      -0.828995       -22.5581
  14   1.0000      -0.800373       -21.7793
  15   1.0000      -0.756567       -20.5872
  16   1.0000      -0.682272       -18.5656
  17   1.0000      -0.663331       -18.0501
  18   1.0000      -0.605632       -16.4801
  19   1.0000      -0.584027       -15.8922
  20   1.0000      -0.555077       -15.1044
  21   1.0000      -0.547559       -14.8998
  22   1.0000      -0.520601       -14.1663
  23   1.0000      -0.492541       -13.4027
  24   1.0000      -0.482383       -13.1263
  25   1.0000      -0.466512       -12.6944
  26   1.0000      -0.448603       -12.2071
  27   1.0000      -0.435221       -11.8430
  28   1.0000      -0.415616       -11.3095
  29   1.0000      -0.392583       -10.6827
  30   1.0000      -0.378405       -10.2969
  31   1.0000      -0.330685        -8.9984
  32   1.0000      -0.327976        -8.9247
  33   1.0000      -0.316672        -8.6171
  34   0.0000      -0.194421        -5.2905
  35   0.0000      -0.053237        -1.4486
  36   0.0000      -0.035729        -0.9722
  37   0.0000      -0.001674        -0.0456
  38   0.0000       0.007175         0.1953

MULLIKEN ATOMIC CHARGES AND SPIN POPULATIONS
--------------------------------------------
   0 C :   -0.311785    0.071245
   1 C :    1.206296    0.158238
   2 C :   -0.759520    0.090555
   3 C :   -1.084008   -0.071262
   4 C :    1.315621    0.365783
   5 C :   -1.198540   -0.031115
   6 H :   -0.072955   -0.003970
   7 C :    1.293841   -0.111408
   8 C :   -0.801245    0.349611
   9 H :    0.366320   -0.009950
  10 H :   -0.039246   -0.001368
  11 H :    0.716639    0.003413
  12 O :   -0.581016    0.177397
  13 C :   -0.710515   -0.013178
  14 H :    0.273798    0.001182
  15 H :    0.343992    0.007592
  16 H :    0.343554    0.007809
  17 H :    0.698766    0.009429
Sum of atomic charges         :    1.0000000

LOEWDIN ATOMIC CHARGES AND SPIN POPULATIONS
-------------------------------------------
   0 C :    0.286153    0.072407
   1 C :   -0.333867    0.131554
   2 C :    0.280672    0.077673
   3 C :    0.257707    0.031093
   4 C :   -0.154525    0.145769
   5 C :    0.267956    0.046608
   6 H :   -0.137189   -0.000571
   7 C :    0.053090    0.068954
   8 C :    0.506382    0.186411
   9 H :   -0.237540    0.044520
  10 H :   -0.140394   -0.004553
  11 H :   -0.143616    0.011702
  12 O :    0.670344    0.154304
  13 C :    0.446666    0.016001
  14 H :   -0.158704   -0.000401
  15 H :   -0.150585    0.004082
  16 H :   -0.149966    0.004104
  17 H :   -0.162584    0.010342

  Mayer bond orders larger than 0.100000
B(  0-C ,  1-C ) :   0.9702 B(  0-C ,  2-C ) :   0.1326 B(  0-C ,  4-C ) :   0.5795
B(  0-C ,  5-C ) :   1.3176 B(  0-C ,  6-H ) :  -0.1093 B(  0-C ,  7-C ) :  -0.2225
B(  0-C , 17-H ) :   0.1057 B(  1-C ,  2-C ) :   0.7822 B(  1-C ,  3-C ) :  -0.4869
B(  1-C ,  4-C ) :  -0.1936 B(  1-C ,  5-C ) :  -0.4697 B(  1-C ,  7-C ) :   0.3151
B(  1-C , 10-H ) :  -0.1040 B(  1-C , 11-H ) :   0.1859 B(  1-C , 12-O ) :   0.5803
B(  1-C , 17-H ) :   0.1662 B(  2-C ,  3-C ) :   1.5611 B(  2-C ,  4-C ) :   0.4537
B(  2-C ,  7-C ) :  -0.1097 B(  2-C , 12-O ) :   0.2951 B(  3-C ,  4-C ) :   0.3783
B(  3-C ,  5-C ) :  -0.4347 B(  3-C ,  6-H ) :   0.2025 B(  3-C ,  7-C ) :   0.3249
B(  3-C , 10-H ) :   1.6682 B(  4-C ,  5-C ) :   0.4360 B(  4-C ,  7-C ) :   0.2251
B(  4-C ,  8-C ) :   0.6574 B(  4-C , 10-H ) :   0.1403 B(  4-C , 12-O ) :   0.1112
B(  5-C ,  6-H ) :   1.7959 B(  5-C ,  7-C ) :   0.2287 B(  5-C ,  8-C ) :  -0.1302
B(  5-C , 10-H ) :   0.1777 B(  6-H ,  7-C ) :  -0.2722 B(  6-H ,  8-C ) :  -0.2889
B(  6-H , 10-H ) :   0.4252 B(  7-C ,  8-C ) :   1.5760 B(  7-C ,  9-H ) :  -0.2819
B(  7-C , 10-H ) :  -0.3411 B(  8-C ,  9-H ) :   1.1811 B(  8-C , 10-H ) :  -0.2857
B(  8-C , 17-H ) :   0.1497 B( 12-O , 13-C ) :   0.9589 B( 13-C , 14-H ) :   0.9618
B( 13-C , 15-H ) :   0.8489 B( 13-C , 16-H ) :   0.8495

Dispersion correction           -0.016066444
FINAL SINGLE POINT ENERGY      -422.378997396782

DIPOLE MOMENT
-------------

Method             : SCF
Type of density    : Electron Density
Multiplicity       :   2
Irrep              :   0
Energy             :  -422.3629309524065434 Eh
Relativity type    :
Basis              : AO
                                X                 Y                 Z
Electronic contribution:      5.103363140       1.793535684      -0.002261108
Nuclear contribution   :     -5.438302807      -2.462578616       0.002422233
                        -----------------------------------------
Total Dipole Moment    :     -0.334939667      -0.669042932       0.000161124
                        -----------------------------------------
Magnitude (a.u.)       :      0.748199874
Magnitude (Debye)      :      1.901772943

VIBRATIONAL FREQUENCIES
-----------------------

Scaling factor for frequencies =  1.000000000  (already applied!)

     0:       0.00 cm**-1
     1:       0.00 cm**-1
     2:       0.00 cm**-1
     3:       0.00 cm**-1
     4:       0.00 cm**-1
     5:       0.00 cm**-1
     6:      43.96 cm**-1
     7:     120.27 cm**-1
     8:     125.57 cm**-1
     9:     135.20 cm**-1
    10:     235.60 cm**-1
    11:     241.60 cm**-1
    12:     375.30 cm**-1
    13:     382.19 cm**-1
    14:     393.91 cm**-1
    15:     498.33 cm**-1
    16:     524.61 cm**-1
    17:     531.31 cm**-1
    18:     613.58 cm**-1
    19:     671.42 cm**-1
    20:     688.74 cm**-1
    21:     704.91 cm**-1
    22:     760.15 cm**-1
    23:     778.13 cm**-1
    24:     826.41 cm**-1
    25:     864.70 cm**-1
    26:     986.92 cm**-1
    27:     996.58 cm**-1
    28:    1000.11 cm**-1
    29:    1018.83 cm**-1
    30:    1122.12 cm**-1
    31:    1160.76 cm**-1
    32:    1173.15 cm**-1
    33:    1198.72 cm**-1
    34:    1258.15 cm**-1
    35:    1295.53 cm**-1
    36:    1360.58 cm**-1
    37:    1382.57 cm**-1
    38:    1443.31 cm**-1
    39:    1463.91 cm**-1
    40:    1467.94 cm**-1
    41:    1487.84 cm**-1
    42:    1531.04 cm**-1
    43:    1536.77 cm**-1
    44:    1677.33 cm**-1
    45:    2119.82 cm**-1
    46:    3074.01 cm**-1
    47:    3166.46 cm**-1
    48:    3203.07 cm**-1
    49:    3222.80 cm**-1
    50:    3228.20 cm**-1
    51:    3236.85 cm**-1
    52:    3245.52 cm**-1
    53:    3422.29 cm**-1

IR SPECTRUM
-----------

 Mode   freq       eps      Int      T**2         TX        TY        TZ
       cm**-1   L/(mol*cm) km/mol    a.u.
----------------------------------------------------------------------------
  6:     43.96   0.000210    1.06  0.001493  (-0.000692 -0.001667  0.038593)
  7:    120.27   0.000644    3.26  0.001672  ( 0.011375 -0.038606 -0.007205)
  8:    125.57   0.000345    1.74  0.000857  (-0.000092  0.011068 -0.027103)
  9:    135.20   0.000023    0.11  0.000052  (-0.001393 -0.000224 -0.007079)
 10:    235.60   0.003576   18.07  0.004736  (-0.001405 -0.000336 -0.068806)
 11:    241.60   0.001719    8.69  0.002220  (-0.046925 -0.004187  0.000667)
 12:    375.30   0.000615    3.11  0.000511  ( 0.000881 -0.000320 -0.022592)
 13:    382.19   0.000009    0.05  0.000007  ( 0.002651  0.000469 -0.000315)
 14:    393.91   0.001120    5.66  0.000888  (-0.000143 -0.000282  0.029792)
 15:    498.33   0.004180   21.12  0.002618  ( 0.037765 -0.034513 -0.000504)
 16:    524.61   0.001549    7.83  0.000921  ( 0.021474  0.021446 -0.000621)
 17:    531.31   0.002811   14.21  0.001651  (-0.000164 -0.000548 -0.040628)
 18:    613.58   0.001914    9.67  0.000974  (-0.012631 -0.028526  0.000571)
 19:    671.42   0.012580   63.57  0.005847  (-0.007364 -0.075474  0.009813)
 20:    688.74   0.009283   46.91  0.004206  ( 0.000668  0.011478  0.063826)
 21:    704.91   0.010659   53.87  0.004719  (-0.066347  0.017791  0.000467)
 22:    760.15   0.000138    0.70  0.000057  ( 0.000065  0.000094  0.007521)
 23:    778.13   0.000074    0.37  0.000029  (-0.000380  0.000363 -0.005405)
 24:    826.41   0.002499   12.63  0.000944  ( 0.028487  0.011492  0.000180)
 25:    864.70   0.025620  129.47  0.009246  (-0.000580  0.000234  0.096154)
 26:    986.92   0.006912   34.93  0.002186  ( 0.045362 -0.011310  0.000111)
 27:    996.58   0.000054    0.27  0.000017  (-0.001566 -0.000088 -0.003795)
 28:   1000.11   0.000011    0.06  0.000004  (-0.000114  0.000357 -0.001855)
 29:   1018.83   0.024584  124.24  0.007530  ( 0.075947  0.041977 -0.000009)
 30:   1122.12   0.004702   23.76  0.001308  (-0.006130 -0.035637 -0.000090)
 31:   1160.76   0.000057    0.29  0.000015  ( 0.001193 -0.000062  0.003731)
 32:   1173.15   0.002262   11.43  0.000602  ( 0.021575  0.011665 -0.000188)
 33:   1198.72   0.000801    4.05  0.000209  (-0.014374 -0.001409 -0.000131)
 34:   1258.15   0.027472  138.83  0.006814  (-0.082544  0.000505 -0.000069)
 35:   1295.53   0.000023    0.12  0.000006  ( 0.002305  0.000452  0.000009)
 36:   1360.58   0.006023   30.44  0.001381  (-0.011628 -0.035302 -0.000066)
 37:   1382.57   0.081288  410.79  0.018348  ( 0.135447 -0.001287  0.000089)
 38:   1443.31   0.046658  235.79  0.010088  (-0.095868  0.029953  0.000441)
 39:   1463.91   0.006074   30.69  0.001295  ( 0.016712 -0.000416  0.031863)
 40:   1467.94   0.029002  146.57  0.006165  (-0.078201 -0.000735  0.007039)
 41:   1487.84   0.003258   16.47  0.000683  ( 0.022606  0.013128 -0.000011)
 42:   1531.04   0.039363  198.92  0.008023  ( 0.084245  0.030427  0.000013)
 43:   1536.77   0.178624  902.69  0.036272  (-0.188995  0.023513  0.000092)
 44:   1677.33   0.005071   25.63  0.000944  ( 0.030538  0.003311 -0.000058)
 45:   2119.82   0.251522  1271.09  0.037027  ( 0.191956 -0.013419  0.000091)
 46:   3074.01   0.003783   19.12  0.000384  (-0.017717 -0.008371 -0.000240)
 47:   3166.46   0.000850    4.30  0.000084  ( 0.000712  0.000478  0.009112)
 48:   3203.07   0.002673   13.51  0.000260  (-0.016063  0.001541  0.000074)
 49:   3222.80   0.000260    1.31  0.000025  (-0.000762 -0.004953 -0.000142)
 50:   3228.20   0.000005    0.03  0.000001  ( 0.000708  0.000030 -0.000054)
 51:   3236.85   0.000795    4.02  0.000077  (-0.004508 -0.007502 -0.000063)
 52:   3245.52   0.001376    6.95  0.000132  (-0.000743  0.011476  0.000069)
 53:   3422.29   0.013158   66.49  0.001200  (-0.034474  0.003365  0.000002)

--------------------------
THERMOCHEMISTRY AT 298.15K
--------------------------

Temperature         ...   298.15 K
Pressure            ...     1.00 atm
Total Mass          ...   132.16 AMU
Quasi RRHO          ...     True
Cut-Off Frequency   ...     1.00 cm^-1

Throughout the following assumptions are being made:
  (1) The electronic state is orbitally nondegenerate
      but the spin degeneracy is treated
  (2) There are no thermally accessible electronically excited states
  (3) Hindered rotations indicated by low frequency modes are not
      treated as such but are treated as vibrations and this may
      cause some error
  (4) All equations used are the standard statistical mechanics
      equations for an ideal gas
  (5) All vibrations are strictly harmonic

freq.      43.96  E(vib)   ...       0.53
freq.     120.27  E(vib)   ...       0.44
freq.     125.57  E(vib)   ...       0.43
freq.     135.20  E(vib)   ...       0.42
freq.     235.60  E(vib)   ...       0.32
freq.     241.60  E(vib)   ...       0.31
freq.     375.30  E(vib)   ...       0.21
freq.     382.19  E(vib)   ...       0.21
freq.     393.91  E(vib)   ...       0.20
freq.     498.33  E(vib)   ...       0.14
freq.     524.61  E(vib)   ...       0.13
freq.     531.31  E(vib)   ...       0.13
freq.     613.58  E(vib)   ...       0.10
freq.     671.42  E(vib)   ...       0.08
freq.     688.74  E(vib)   ...       0.07
freq.     704.91  E(vib)   ...       0.07
freq.     760.15  E(vib)   ...       0.06
freq.     778.13  E(vib)   ...       0.05
freq.     826.41  E(vib)   ...       0.04
freq.     864.70  E(vib)   ...       0.04
freq.     986.92  E(vib)   ...       0.02
freq.     996.58  E(vib)   ...       0.02
freq.    1000.11  E(vib)   ...       0.02
freq.    1018.83  E(vib)   ...       0.02
freq.    1122.12  E(vib)   ...       0.01
freq.    1160.76  E(vib)   ...       0.01
freq.    1173.15  E(vib)   ...       0.01
freq.    1198.72  E(vib)   ...       0.01
freq.    1258.15  E(vib)   ...       0.01
freq.    1295.53  E(vib)   ...       0.01
freq.    1360.58  E(vib)   ...       0.01
freq.    1382.57  E(vib)   ...       0.01
freq.    1443.31  E(vib)   ...       0.00
freq.    1463.91  E(vib)   ...       0.00
freq.    1467.94  E(vib)   ...       0.00
freq.    1487.84  E(vib)   ...       0.00
freq.    1531.04  E(vib)   ...       0.00
freq.    1536.77  E(vib)   ...       0.00
freq.    1677.33  E(vib)   ...       0.00
freq.    2119.82  E(vib)   ...       0.00
freq.    3074.01  E(vib)   ...       0.00
freq.    3166.46  E(vib)   ...       0.00
freq.    3203.07  E(vib)   ...       0.00
freq.    3222.80  E(vib)   ...       0.00
freq.    3228.20  E(vib)   ...       0.00
freq.    3236.85  E(vib)   ...       0.00
freq.    3245.52  E(vib)   ...       0.00
freq.    3422.29  E(vib)   ...       0.00

------------
INNER ENERGY
------------

The inner energy is: U= E(el) + E(ZPE) + E(vib) + E(rot) + E(trans)
    E(el)   - is the total energy from the electronic structure calculation
              = E(kin-el) + E(nuc-el) + E(el-el) + E(nuc-nuc)
    E(ZPE)  - the the zero temperature vibrational energy from the frequency calculation
    E(vib)  - the the finite temperature correction to E(ZPE) due to population
              of excited vibrational states
    E(rot)  - is the rotational thermal energy
    E(trans)- is the translational thermal energy

Summary of contributions to the inner energy U:
Electronic energy                ...   -422.37899740 Eh
Zero point energy                ...      0.14123971 Eh      88.63 kcal/mol
Thermal vibrational correction   ...      0.00663075 Eh       4.16 kcal/mol
Thermal rotational correction    ...      0.00141627 Eh       0.89 kcal/mol
Thermal translational correction ...      0.00141627 Eh       0.89 kcal/mol
-----------------------------------------------------------------------
Total thermal energy                   -422.22829439 Eh

Summary of corrections to the electronic energy:
(perhaps to be used in another calculation)
Total thermal correction                  0.00946329 Eh       5.94 kcal/mol
Non-thermal (ZPE) correction              0.14123971 Eh      88.63 kcal/mol
-----------------------------------------------------------------------
Total correction                          0.15070300 Eh      94.57 kcal/mol

--------
ENTHALPY
--------

The enthalpy is H = U + kB*T
                kB is Boltzmann's constant
Total thermal energy              ...   -422.22829439 Eh
Thermal Enthalpy correction       ...      0.00094421 Eh       0.59 kcal/mol
-----------------------------------------------------------------------
Total Enthalpy                    ...   -422.22735019 Eh

Note: Only C1 symmetry has been detected, increase convergence thresholds
      if your molecule has a higher symmetry. Symmetry factor of 1.0 is
      used for the rotational entropy correction.

Note: Rotational entropy computed according to Herzberg
Infrared and Raman Spectra, Chapter V,1, Van Nostrand Reinhold, 1945
Point Group:  C1, Symmetry Number:   1
Rotational constants in cm-1:     0.157414     0.024284     0.021124

Vibrational entropy computed according to the QRRHO of S. Grimme
Chem.Eur.J. 2012 18 9955 using a reference frequency of 100.0 cm-1

-------
ENTROPY
-------

The entropy contributions are T*S = T*(S(el)+S(vib)+S(rot)+S(trans))
     S(el)   - electronic entropy
     S(vib)  - vibrational entropy
     S(rot)  - rotational entropy
     S(trans)- translational entropy
The entropies will be listed as multiplied by the temperature to get
units of energy

Electronic entropy                ...      0.00065446 Eh      0.41 kcal/mol
Vibrational entropy               ...      0.01135755 Eh      7.13 kcal/mol
Rotational entropy                ...      0.01395988 Eh      8.76 kcal/mol
Translational entropy             ...      0.01926618 Eh     12.09 kcal/mol
-----------------------------------------------------------------------
Final entropy term                ...      0.04523806 Eh     28.39 kcal/mol

In case the symmetry of your molecule has not been determined correctly
or in case you have a reason to use a different symmetry number we print
out the resulting rotational entropy values for sn=1,12:

 non-linear molecules -----------------------------------
|  sn= 1 | S(rot)=       0.01395988 Eh      8.76 kcal/mol|
|  sn= 2 | S(rot)=       0.01330542 Eh      8.35 kcal/mol|
|  sn= 3 | S(rot)=       0.01292259 Eh      8.11 kcal/mol|
|  sn= 4 | S(rot)=       0.01265097 Eh      7.94 kcal/mol|
|  sn= 5 | S(rot)=       0.01244028 Eh      7.81 kcal/mol|
|  sn= 6 | S(rot)=       0.01226813 Eh      7.70 kcal/mol|
|  sn= 7 | S(rot)=       0.01212259 Eh      7.61 kcal/mol|
|  sn= 8 | S(rot)=       0.01199651 Eh      7.53 kcal/mol|
|  sn= 9 | S(rot)=       0.01188530 Eh      7.46 kcal/mol|
|  sn=10 | S(rot)=       0.01178582 Eh      7.40 kcal/mol|
|  sn=11 | S(rot)=       0.01169583 Eh      7.34 kcal/mol|

                             ****ORCA TERMINATED NORMALLY****
TOTAL RUN TIME: 0 days 0 hours 49 minutes 19 seconds 535 msec
