                         Program Version 6.0.0  -   RELEASE  -
|  1> !B3LYP opt aug-cc-pVTZ d3 TightSCF SlowConv RIJCOSX defgrid2
|  2>
|  3> %pal
|  4> nprocs 8
|  5> end
|  6>
|  7> %scf
|  8> MaxIter 1500
|  9> end
| 10>
| 11> %maxcore 3500
| 12>
| 13> !CPCM
| 14> %cpcm smd true
| 15> SMDsolvent "MeCN"
| 16> surfacetype gepol_ses
| 17> rsolv 2.19
| 18> end
| 19>
| 20> * xyz 0 1
| 21> C           0.86930262577353     -1.20261880029345      0.00017105333715
| 22> C           1.23795362702926      0.14976029336823      0.00011888618076
| 23> C           0.20861669065532      1.10178711313028      0.00004997159606
| 24> C          -1.14266539481067      0.75277814049696     -0.00001496332606
| 25> C          -1.49510132454858     -0.61091836423424      0.00001993066330
| 26> C          -0.47134803669840     -1.56560486246111      0.00011663608289
| 27> H          -0.73825756953350     -2.62759517616832      0.00016986000597
| 28> C          -2.93561352812274     -1.03199819846802     -0.00003268925957
| 29> H          -3.03042597379354     -2.12984128685189      0.00005376751285
| 30> H          -3.47239583982485     -0.64683793793607     -0.88649052066934
| 31> H          -3.47250072897996     -0.64668878799144      0.88629702354134
| 32> C          -2.20261220725801      1.81656948866912     -0.00009254079027
| 33> H          -2.85825633400454      1.73802365829102      0.88648022833246
| 34> H          -2.85834169985167      1.73782693594634     -0.88658224699833
| 35> H          -1.75673523006564      2.82424393630291     -0.00022124376864
| 36> H           0.47747434540426      2.16407970597621      0.00002545328680
| 37> C           2.63224685704945      0.60848489545892      0.00012709034736
| 38> C           3.73948848691454     -0.14591897511127     -0.00036178438147
| 39> H           3.70645882304827     -1.24152951701146     -0.00086807767724
| 40> H           4.73244049250843      0.31559854639130     -0.00029313441000
| 41> H           2.75218557093434      1.69979268676539      0.00055539249904
| 42> H           1.63531784817470     -1.98284589426942      0.00029190789491
| 43> *
| 44>
| 45>                          ****END OF INPUT****
 Total Charge           Charge          ....    0
 Multiplicity           Mult            ....    1
 Number of Electrons    NEL             ....   72
Dispersion correction           -0.039231386
FINAL SINGLE POINT ENERGY      -388.210002657367
Dispersion correction             ... done (  0.1 sec)
Dispersion correction           -0.039346075
FINAL SINGLE POINT ENERGY      -388.211237189458
Dispersion correction             ... done (  0.1 sec)
Dispersion correction           -0.039356815
FINAL SINGLE POINT ENERGY      -388.211245266005
Dispersion correction             ... done (  0.1 sec)
                    ***********************HURRAY********************

CARTESIAN COORDINATES (ANGSTROEM)
---------------------------------
  C      0.867377   -1.200466    0.000042
  C      1.232747    0.148974    0.000159
  C      0.207518    1.100492    0.000213
  C     -1.139818    0.751133    0.000109
  C     -1.490655   -0.608817   -0.000059
  C     -0.470013   -1.561734   -0.000077
  H     -0.733057   -2.612155    0.000189
  C     -2.930501   -1.034770   -0.000189
  H     -3.018723   -2.120137    0.000093
  H     -3.460510   -0.653880   -0.876564
  H     -3.460815   -0.653478    0.875792
  C     -2.197447    1.818580    0.000060
  H     -2.844578    1.741261    0.876979
  H     -2.846152    1.739328   -0.875491
  H     -1.752023    2.812288   -0.001530
  H      0.474060    2.150753    0.000077
  C      2.625665    0.608883    0.000295
  C      3.725601   -0.145994   -0.000316
  H      3.693552   -1.228280   -0.001095
  H      4.706601    0.309851    0.000002
  H      2.744789    1.687884    0.000716
  H      1.623614   -1.973169    0.000113

 Multiplicity           Mult            ....    1
 Number of Electrons    NEL             ....   72
 Basis Dimension        Dim             ....  736

ORBITAL ENERGIES
----------------

  NO   OCC          E(Eh)            E(eV)
   0   2.0000     -10.179393      -276.9954
   1   2.0000     -10.178786      -276.9789
   2   2.0000     -10.178205      -276.9630
   3   2.0000     -10.176018      -276.9035
   4   2.0000     -10.168329      -276.6943
   5   2.0000     -10.167631      -276.6753
   6   2.0000     -10.167432      -276.6699
   7   2.0000     -10.162076      -276.5241
   8   2.0000     -10.157974      -276.4125
   9   2.0000     -10.157845      -276.4090
  10   2.0000      -0.863948       -23.5092
  11   2.0000      -0.800424       -21.7807
  12   2.0000      -0.762759       -20.7557
  13   2.0000      -0.744960       -20.2714
  14   2.0000      -0.694210       -18.8904
  15   2.0000      -0.666790       -18.1443
  16   2.0000      -0.600803       -16.3487
  17   2.0000      -0.594858       -16.1869
  18   2.0000      -0.539050       -14.6683
  19   2.0000      -0.495723       -13.4893
  20   2.0000      -0.478164       -13.0115
  21   2.0000      -0.446618       -12.1531
  22   2.0000      -0.429485       -11.6869
  23   2.0000      -0.427122       -11.6226
  24   2.0000      -0.412107       -11.2140
  25   2.0000      -0.404500       -11.0070
  26   2.0000      -0.391563       -10.6550
  27   2.0000      -0.378618       -10.3027
  28   2.0000      -0.377064       -10.2604
  29   2.0000      -0.364800        -9.9267
  30   2.0000      -0.357168        -9.7190
  31   2.0000      -0.332860        -9.0576
  32   2.0000      -0.328363        -8.9352
  33   2.0000      -0.294522        -8.0143
  34   2.0000      -0.248235        -6.7548
  35   2.0000      -0.221045        -6.0149
  36   0.0000      -0.040621        -1.1054
  37   0.0000      -0.009204        -0.2505
  38   0.0000      -0.003028        -0.0824
  39   0.0000       0.006292         0.1712
  40   0.0000       0.010700         0.2912

MULLIKEN ATOMIC CHARGES
-----------------------
   0 C :   -0.327879
   1 C :    2.064449
   2 C :   -1.192741
   3 C :    0.702867
   4 C :    0.897456
   5 C :   -1.272823
   6 H :    0.051737
   7 C :   -0.787106
   8 H :    0.108987
   9 H :    0.216613
  10 H :    0.215700
  11 C :   -0.787893
  12 H :    0.221106
  13 H :    0.220063
  14 H :    0.105658
  15 H :   -0.259703
  16 C :    0.009578
  17 C :   -1.015390
  18 H :    0.249272
  19 H :    0.283277
  20 H :    0.126592
  21 H :    0.170180
Sum of atomic charges:   -0.0000000

LOEWDIN ATOMIC CHARGES
----------------------
   0 C :    0.208904
   1 C :   -0.147637
   2 C :    0.223275
   3 C :   -0.098667
   4 C :   -0.103134
   5 C :    0.219572
   6 H :   -0.173715
   7 C :    0.579941
   8 H :   -0.171826
   9 H :   -0.159251
  10 H :   -0.159232
  11 C :    0.581873
  12 H :   -0.158943
  13 H :   -0.159100
  14 H :   -0.171383
  15 H :   -0.173430
  16 C :    0.166662
  17 C :    0.522664
  18 H :   -0.225281
  19 H :   -0.220791
  20 H :   -0.193656
  21 H :   -0.186844

  Mayer bond orders larger than 0.100000
B(  0-C ,  1-C ) :   0.2298 B(  0-C ,  2-C ) :  -0.8716 B(  0-C ,  3-C ) :  -0.1612
B(  0-C ,  5-C ) :   0.7252 B(  0-C ,  6-H ) :  -0.1021 B(  0-C , 16-C ) :   0.3698
B(  0-C , 21-H ) :   1.4887 B(  1-C ,  2-C ) :  -0.3795 B(  1-C ,  3-C ) :   0.4530
B(  1-C ,  4-C ) :  -0.3265 B(  1-C ,  7-C ) :   0.1104 B(  1-C , 15-H ) :  -0.4260
B(  1-C , 16-C ) :  -0.1713 B(  1-C , 17-C ) :  -0.1204 B(  1-C , 21-H ) :  -0.1079
B(  2-C ,  3-C ) :   0.6227 B(  2-C ,  4-C ) :  -0.2971 B(  2-C ,  5-C ) :   0.2773
B(  2-C , 11-C ) :  -0.2029 B(  2-C , 15-H ) :   2.2579 B(  2-C , 16-C ) :   0.2004
B(  2-C , 17-C ) :   0.1143 B(  2-C , 20-H ) :  -0.1395 B(  3-C ,  4-C ) :   1.2367
B(  3-C ,  5-C ) :   0.2799 B(  3-C ,  7-C ) :   0.1435 B(  3-C , 12-H ) :  -0.1256
B(  3-C , 13-H ) :  -0.1255 B(  3-C , 15-H ) :  -0.2058 B(  3-C , 20-H ) :   0.1342
B(  3-C , 21-H ) :  -0.2536 B(  4-C ,  5-C ) :   0.5781 B(  4-C ,  7-C ) :   0.2261
B(  4-C ,  9-H ) :  -0.1045 B(  4-C , 10-H ) :  -0.1047 B(  4-C , 11-C ) :   0.4436
B(  4-C , 16-C ) :   0.1433 B(  4-C , 21-H ) :  -0.1253 B(  5-C ,  6-H ) :   1.2040
B(  5-C ,  7-C ) :  -0.1677 B(  5-C , 17-C ) :  -0.1382 B(  5-C , 21-H ) :  -0.1503
B(  7-C ,  8-H ) :   1.0557 B(  7-C ,  9-H ) :   1.0332 B(  7-C , 10-H ) :   1.0331
B( 11-C , 12-H ) :   1.0267 B( 11-C , 13-H ) :   1.0279 B( 11-C , 14-H ) :   1.0518
B( 15-H , 16-C ) :  -0.1531 B( 15-H , 20-H ) :  -0.1020 B( 15-H , 21-H ) :   0.1055
B( 16-C , 17-C ) :   0.9442 B( 16-C , 20-H ) :   1.0830 B( 17-C , 18-H ) :   1.1317
B( 17-C , 19-H ) :   0.8660 B( 17-C , 20-H ) :  -0.1966

Dispersion correction           -0.039359670
FINAL SINGLE POINT ENERGY      -388.211247316206

DIPOLE MOMENT
-------------

Method             : SCF
Type of density    : Electron Density
Multiplicity       :   1
Irrep              :   0
Energy             :  -388.1718876466675852 Eh
Relativity type    :
Basis              : AO
                                X                 Y                 Z
Electronic contribution:      3.995471743      -1.056351960       0.000952357
Nuclear contribution   :     -4.593947437       1.149573246      -0.000855222
                        -----------------------------------------
Total Dipole Moment    :     -0.598475695       0.093221286       0.000097136
                        -----------------------------------------
Magnitude (a.u.)       :      0.605692475
Magnitude (Debye)      :      1.539547922

Rotational constants in cm-1:             0.097749             0.028750             0.022398
Rotational constants in MHz :          2930.447039           861.892286           671.486890

                             ****ORCA TERMINATED NORMALLY****
TOTAL RUN TIME: 0 days 0 hours 21 minutes 18 seconds 628 msec
