                         Program Version 6.0.0  -   RELEASE  -
|  1> !TPSSh aug-cc-pVTZ d3 TightSCF SlowConv RIJCOSX defgrid2
|  2>
|  3> %pal
|  4> nprocs 4
|  5> end
|  6>
|  7> %scf
|  8> MaxIter 1500
|  9> end
| 10>
| 11> %maxcore 3000
| 12>
| 13> !CPCM
| 14> %cpcm smd true
| 15> SMDsolvent "MeCN"
| 16> surfacetype gepol_ses
| 17> rsolv 2.19
| 18> end
| 19>
| 20> * xyz 0 1
| 21> C          -1.64824126618017      1.17962905218596     -0.27640852251821
| 22> C          -2.36732067057951      0.01222657741033      0.01013723312640
| 23> C          -1.65681369830039     -1.16061817519344      0.29208568093245
| 24> C          -0.26626323928183     -1.16443624467977      0.28791791148105
| 25> C           0.45854663028887      0.00217454247658      0.00256283796462
| 26> C          -0.26127971202858      1.17549258128224     -0.27984384623215
| 27> H           0.28089631587743      2.09137892779172     -0.53113220855770
| 28> C           1.93696149154138     -0.00279971672945      0.00051608331538
| 29> C           2.65303791085162     -1.10978954515941     -0.47925860702356
| 30> C           4.04531433476339     -1.11398347683307     -0.48167578797554
| 31> C           4.75102098587613     -0.01129559121339     -0.00116086906809
| 32> C           4.05248382144489      1.09572154879970      0.47984618566416
| 33> C           2.66020581714669      1.10014601648294      0.47888547594482
| 34> H           2.12182100458790      1.96339836557137      0.88035790986018
| 35> H           4.59686021513246      1.96228462828998      0.86676809069055
| 36> H           5.84493441172309     -0.01451276377516     -0.00190011189447
| 37> H           4.58410302781916     -1.98346854512299     -0.86991334409081
| 38> H           2.10898948157834     -1.96925435572582     -0.88135237996202
| 39> H           0.27006313897588     -2.08418650265354      0.53693846273009
| 40> H          -2.18747776526920     -2.08664808126969      0.52830693817217
| 41> C          -3.86122618809550      0.08310521129981     -0.00075253917882
| 42> O          -4.42728606147296      1.12411459370127     -0.25389321491014
| 43> C          -4.64225327233386     -1.17234258475983      0.31143142335015
| 44> H          -5.71614646164934     -0.94073069402301      0.26216108811743
| 45> H          -4.40777348323050     -1.97432489828778     -0.41030103402591
| 46> H          -4.39571168425506     -1.55218269043734      1.31835323175607
| 47> H          -2.21343058493032      2.08711072057180     -0.50408998766811
| 48> *
| 49>
| 50>                          ****END OF INPUT****

CARTESIAN COORDINATES (ANGSTROEM)
---------------------------------
  C     -1.648241    1.179629   -0.276409
  C     -2.367321    0.012227    0.010137
  C     -1.656814   -1.160618    0.292086
  C     -0.266263   -1.164436    0.287918
  C      0.458547    0.002175    0.002563
  C     -0.261280    1.175493   -0.279844
  H      0.280896    2.091379   -0.531132
  C      1.936961   -0.002800    0.000516
  C      2.653038   -1.109790   -0.479259
  C      4.045314   -1.113983   -0.481676
  C      4.751021   -0.011296   -0.001161
  C      4.052484    1.095722    0.479846
  C      2.660206    1.100146    0.478885
  H      2.121821    1.963398    0.880358
  H      4.596860    1.962285    0.866768
  H      5.844934   -0.014513   -0.001900
  H      4.584103   -1.983469   -0.869913
  H      2.108989   -1.969254   -0.881352
  H      0.270063   -2.084187    0.536938
  H     -2.187478   -2.086648    0.528307
  C     -3.861226    0.083105   -0.000753
  O     -4.427286    1.124115   -0.253893
  C     -4.642253   -1.172343    0.311431
  H     -5.716146   -0.940731    0.262161
  H     -4.407773   -1.974325   -0.410301
  H     -4.395712   -1.552183    1.318353
  H     -2.213431    2.087111   -0.504090

 Total Charge           Charge          ....    0
 Multiplicity           Mult            ....    1
 Number of Electrons    NEL             ....  104
 Basis Dimension        Dim             ....  966

ORBITAL ENERGIES
----------------

  NO   OCC          E(Eh)            E(eV)
   0   2.0000     -19.041872      -518.1557
   1   2.0000     -10.199340      -277.5382
   2   2.0000     -10.137963      -275.8680
   3   2.0000     -10.131541      -275.6932
   4   2.0000     -10.127533      -275.5842
   5   2.0000     -10.126081      -275.5447
   6   2.0000     -10.123617      -275.4776
   7   2.0000     -10.122889      -275.4578
   8   2.0000     -10.122593      -275.4498
   9   2.0000     -10.120254      -275.3861
  10   2.0000     -10.120208      -275.3849
  11   2.0000     -10.119216      -275.3579
  12   2.0000     -10.118956      -275.3508
  13   2.0000     -10.118492      -275.3382
  14   2.0000     -10.109363      -275.0898
  15   2.0000      -1.022051       -27.8114
  16   2.0000      -0.855699       -23.2847
  17   2.0000      -0.833196       -22.6724
  18   2.0000      -0.770445       -20.9649
  19   2.0000      -0.737276       -20.0623
  20   2.0000      -0.728263       -19.8170
  21   2.0000      -0.723894       -19.6981
  22   2.0000      -0.698422       -19.0050
  23   2.0000      -0.621120       -16.9015
  24   2.0000      -0.603142       -16.4123
  25   2.0000      -0.575446       -15.6587
  26   2.0000      -0.569035       -15.4842
  27   2.0000      -0.533355       -14.5133
  28   2.0000      -0.508830       -13.8460
  29   2.0000      -0.473015       -12.8714
  30   2.0000      -0.455565       -12.3965
  31   2.0000      -0.448941       -12.2163
  32   2.0000      -0.427020       -11.6198
  33   2.0000      -0.425068       -11.5667
  34   2.0000      -0.422914       -11.5081
  35   2.0000      -0.417980       -11.3738
  36   2.0000      -0.408169       -11.1069
  37   2.0000      -0.400204       -10.8901
  38   2.0000      -0.398594       -10.8463
  39   2.0000      -0.374276       -10.1846
  40   2.0000      -0.370705       -10.0874
  41   2.0000      -0.356872        -9.7110
  42   2.0000      -0.352958        -9.6045
  43   2.0000      -0.341037        -9.2801
  44   2.0000      -0.333430        -9.0731
  45   2.0000      -0.324947        -8.8423
  46   2.0000      -0.317599        -8.6423
  47   2.0000      -0.274132        -7.4595
  48   2.0000      -0.253664        -6.9026
  49   2.0000      -0.249607        -6.7921
  50   2.0000      -0.237226        -6.4552
  51   2.0000      -0.227482        -6.1901
  52   0.0000      -0.080187        -2.1820
  53   0.0000      -0.031791        -0.8651
  54   0.0000      -0.026647        -0.7251
  55   0.0000      -0.026142        -0.7114
  56   0.0000      -0.005152        -0.1402

MULLIKEN ATOMIC CHARGES
-----------------------
   0 C :   -0.925715
   1 C :    0.958363
   2 C :   -0.538886
   3 C :   -0.756955
   4 C :    1.484865
   5 C :   -0.640335
   6 H :    0.150295
   7 C :    1.686422
   8 C :   -0.708107
   9 C :   -0.643824
  10 C :   -0.032547
  11 C :   -0.639720
  12 C :   -0.733691
  13 H :    0.047258
  14 H :    0.312466
  15 H :    0.493258
  16 H :    0.301935
  17 H :    0.032736
  18 H :    0.103178
  19 H :    0.038577
  20 C :    1.028092
  21 O :   -1.036624
  22 C :   -0.235450
  23 H :   -0.028288
  24 H :    0.186312
  25 H :    0.191257
  26 H :   -0.094871
Sum of atomic charges:   -0.0000000

LOEWDIN ATOMIC CHARGES
----------------------
   0 C :    0.205786
   1 C :   -0.131113
   2 C :    0.219788
   3 C :    0.233678
   4 C :   -0.113134
   5 C :    0.230277
   6 H :   -0.165402
   7 C :   -0.123880
   8 C :    0.209136
   9 C :    0.196937
  10 C :    0.188625
  11 C :    0.196942
  12 C :    0.209143
  13 H :   -0.168213
  14 H :   -0.169137
  15 H :   -0.170727
  16 H :   -0.169112
  17 H :   -0.168116
  18 H :   -0.164031
  19 H :   -0.172124
  20 C :   -0.550622
  21 O :    0.488044
  22 C :    0.566118
  23 H :   -0.177787
  24 H :   -0.158139
  25 H :   -0.158477
  26 H :   -0.184459

  Mayer bond orders larger than 0.100000
B(  0-C ,  1-C ) :   0.6613 B(  0-C ,  2-C ) :  -0.2725 B(  0-C ,  3-C ) :   0.1314
B(  0-C ,  4-C ) :  -0.1992 B(  0-C ,  5-C ) :   1.7329 B(  0-C ,  6-H ) :  -0.1348
B(  0-C , 20-C ) :   0.1453 B(  0-C , 21-O ) :  -0.1105 B(  0-C , 26-H ) :   1.0953
B(  1-C ,  2-C ) :   0.6860 B(  1-C ,  4-C ) :  -0.2361 B(  1-C ,  7-C ) :   0.1990
B(  1-C , 20-C ) :   0.6062 B(  1-C , 21-O ) :   0.5569 B(  2-C ,  3-C ) :   1.4252
B(  2-C ,  4-C ) :  -0.2055 B(  2-C , 19-H ) :   1.2174 B(  2-C , 20-C ) :   0.1204
B(  2-C , 26-H ) :   0.1539 B(  3-C ,  4-C ) :   0.4567 B(  3-C ,  5-C ) :  -0.3633
B(  3-C , 18-H ) :   1.0444 B(  3-C , 20-C ) :  -0.1392 B(  3-C , 26-H ) :   0.1725
B(  4-C ,  5-C ) :   0.7451 B(  4-C ,  6-H ) :   0.1062 B(  4-C ,  8-C ) :   0.2911
B(  4-C , 10-C ) :   0.1525 B(  4-C , 12-C ) :   0.1827 B(  4-C , 13-H ) :  -0.1123
B(  4-C , 20-C ) :   0.1831 B(  5-C ,  6-H ) :   0.9483 B(  5-C , 21-O ) :  -0.1139
B(  6-H ,  7-C ) :  -0.1352 B(  7-C ,  8-C ) :   0.5309 B(  7-C ,  9-C ) :  -0.1650
B(  7-C , 10-C ) :  -0.1769 B(  7-C , 11-C ) :  -0.1471 B(  7-C , 12-C ) :   0.5046
B(  7-C , 14-H ) :   0.1149 B(  7-C , 16-H ) :   0.1204 B(  7-C , 18-H ) :  -0.1296
B(  8-C ,  9-C ) :   1.5123 B(  8-C , 12-C ) :  -0.3855 B(  8-C , 17-H ) :   1.1781
B(  9-C , 10-C ) :   1.3675 B(  9-C , 11-C ) :   0.1050 B(  9-C , 12-C ) :   0.1052
B(  9-C , 16-H ) :   0.7219 B( 10-C , 11-C ) :   1.3709 B( 10-C , 15-H ) :   0.4594
B( 11-C , 12-C ) :   1.5156 B( 11-C , 14-H ) :   0.6928 B( 12-C , 13-H ) :   1.1730
B( 20-C , 21-O ) :   0.2420 B( 20-C , 22-C ) :   1.0366 B( 20-C , 26-H ) :  -0.1669
B( 21-O , 26-H ) :   0.2557 B( 22-C , 23-H ) :   1.0149 B( 22-C , 24-H ) :   0.9424
B( 22-C , 25-H ) :   0.9442

Dispersion correction           -0.038536476
FINAL SINGLE POINT ENERGY      -616.261733754122

DIPOLE MOMENT
-------------

Method             : SCF
Type of density    : Electron Density
Multiplicity       :   1
Irrep              :   0
Energy             :  -616.2231972781908098 Eh
Relativity type    :
Basis              : AO
                                X                 Y                 Z
Electronic contribution:      0.494626732       2.959846180      -0.735613753
Nuclear contribution   :      0.745176245      -4.228888147       1.043265209
                        -----------------------------------------
Total Dipole Moment    :      1.239802977      -1.269041967       0.307651457
                        -----------------------------------------
Magnitude (a.u.)       :      1.800618881
Magnitude (Debye)      :      4.576809471

Rotational constants in cm-1:             0.074921             0.008604             0.007886
Rotational constants in MHz :          2246.083248           257.938515           236.409814

                             ****ORCA TERMINATED NORMALLY****
TOTAL RUN TIME: 0 days 0 hours 13 minutes 17 seconds 962 msec
