                         Program Version 6.0.0  -   RELEASE  -
|  1> !PBE0 opt def2-SV(p) d3 TightSCF SlowConv RIJCOSX defgrid2
|  2>
|  3> %pal
|  4> nprocs 8
|  5> end
|  6>
|  7> %scf
|  8> MaxIter 1500
|  9> end
| 10>
| 11> %maxcore 3500
| 12>
| 13> !CPCM
| 14> %cpcm smd true
| 15> SMDsolvent "MeCN"
| 16> surfacetype gepol_ses
| 17> rsolv 2.19
| 18> end
| 19>
| 20> * xyz 0 1
| 21> C           0.86930262577353     -1.20261880029345      0.00017105333715
| 22> C           1.23795362702926      0.14976029336823      0.00011888618076
| 23> C           0.20861669065532      1.10178711313028      0.00004997159606
| 24> C          -1.14266539481067      0.75277814049696     -0.00001496332606
| 25> C          -1.49510132454858     -0.61091836423424      0.00001993066330
| 26> C          -0.47134803669840     -1.56560486246111      0.00011663608289
| 27> H          -0.73825756953350     -2.62759517616832      0.00016986000597
| 28> C          -2.93561352812274     -1.03199819846802     -0.00003268925957
| 29> H          -3.03042597379354     -2.12984128685189      0.00005376751285
| 30> H          -3.47239583982485     -0.64683793793607     -0.88649052066934
| 31> H          -3.47250072897996     -0.64668878799144      0.88629702354134
| 32> C          -2.20261220725801      1.81656948866912     -0.00009254079027
| 33> H          -2.85825633400454      1.73802365829102      0.88648022833246
| 34> H          -2.85834169985167      1.73782693594634     -0.88658224699833
| 35> H          -1.75673523006564      2.82424393630291     -0.00022124376864
| 36> H           0.47747434540426      2.16407970597621      0.00002545328680
| 37> C           2.63224685704945      0.60848489545892      0.00012709034736
| 38> C           3.73948848691454     -0.14591897511127     -0.00036178438147
| 39> H           3.70645882304827     -1.24152951701146     -0.00086807767724
| 40> H           4.73244049250843      0.31559854639130     -0.00029313441000
| 41> H           2.75218557093434      1.69979268676539      0.00055539249904
| 42> H           1.63531784817470     -1.98284589426942      0.00029190789491
| 43> *
| 44>
| 45>                          ****END OF INPUT****
 Total Charge           Charge          ....    0
 Multiplicity           Mult            ....    1
 Number of Electrons    NEL             ....   72
Dispersion correction           -0.020182978
FINAL SINGLE POINT ENERGY      -387.536224102642
Dispersion correction             ... done (  0.1 sec)
Dispersion correction           -0.020175801
FINAL SINGLE POINT ENERGY      -387.536254345625
Dispersion correction             ... done (  0.1 sec)
Dispersion correction           -0.020175567
FINAL SINGLE POINT ENERGY      -387.536258012993
Dispersion correction             ... done (  0.1 sec)
                    ***********************HURRAY********************

CARTESIAN COORDINATES (ANGSTROEM)
---------------------------------
  C      0.870924   -1.203793   -0.000292
  C      1.238190    0.150581   -0.000136
  C      0.208749    1.105049   -0.000029
  C     -1.143821    0.754613    0.000003
  C     -1.496137   -0.611315   -0.000081
  C     -0.471193   -1.567060   -0.000252
  H     -0.737157   -2.629348   -0.000012
  C     -2.935463   -1.032391   -0.000006
  H     -3.030315   -2.130504    0.000128
  H     -3.472442   -0.646052   -0.885982
  H     -3.472414   -0.645918    0.885903
  C     -2.203636    1.817051    0.000093
  H     -2.859270    1.737769    0.886767
  H     -2.860615    1.736380   -0.885429
  H     -1.758450    2.825374   -0.001110
  H      0.477574    2.167278   -0.000153
  C      2.633577    0.610545    0.000057
  C      3.739458   -0.148116    0.000092
  H      3.706680   -1.244750   -0.000064
  H      4.732883    0.315119    0.000416
  H      2.754470    1.701941    0.000075
  H      1.635640   -1.985903   -0.000467

 Multiplicity           Mult            ....    1
 Number of Electrons    NEL             ....   72
 Basis Dimension        Dim             ....  164

ORBITAL ENERGIES
----------------

  NO   OCC          E(Eh)            E(eV)
   0   2.0000     -10.244165      -278.7579
   1   2.0000     -10.243537      -278.7408
   2   2.0000     -10.243082      -278.7284
   3   2.0000     -10.238780      -278.6114
   4   2.0000     -10.232874      -278.4507
   5   2.0000     -10.232060      -278.4285
   6   2.0000     -10.231976      -278.4262
   7   2.0000     -10.226231      -278.2699
   8   2.0000     -10.219540      -278.0878
   9   2.0000     -10.219395      -278.0839
  10   2.0000      -0.884412       -24.0661
  11   2.0000      -0.818876       -22.2827
  12   2.0000      -0.780425       -21.2364
  13   2.0000      -0.761268       -20.7152
  14   2.0000      -0.709596       -19.3091
  15   2.0000      -0.681641       -18.5484
  16   2.0000      -0.615460       -16.7475
  17   2.0000      -0.610013       -16.5993
  18   2.0000      -0.552934       -15.0461
  19   2.0000      -0.511994       -13.9321
  20   2.0000      -0.495094       -13.4722
  21   2.0000      -0.460637       -12.5346
  22   2.0000      -0.445173       -12.1138
  23   2.0000      -0.441423       -12.0117
  24   2.0000      -0.426773       -11.6131
  25   2.0000      -0.420156       -11.4330
  26   2.0000      -0.404972       -11.0199
  27   2.0000      -0.392393       -10.6776
  28   2.0000      -0.391076       -10.6417
  29   2.0000      -0.380403       -10.3513
  30   2.0000      -0.370396       -10.0790
  31   2.0000      -0.348028        -9.4703
  32   2.0000      -0.341855        -9.3024
  33   2.0000      -0.308051        -8.3825
  34   2.0000      -0.261332        -7.1112
  35   2.0000      -0.233244        -6.3469
  36   0.0000      -0.035239        -0.9589
  37   0.0000      -0.000327        -0.0089
  38   0.0000       0.057260         1.5581
  39   0.0000       0.080371         2.1870
  40   0.0000       0.094090         2.5603

MULLIKEN ATOMIC CHARGES
-----------------------
   0 C :   -0.176512
   1 C :    0.092345
   2 C :   -0.249145
   3 C :   -0.041936
   4 C :   -0.061067
   5 C :   -0.176082
   6 H :    0.106796
   7 C :   -0.296872
   8 H :    0.144605
   9 H :    0.150430
  10 H :    0.150402
  11 C :   -0.296980
  12 H :    0.150098
  13 H :    0.150018
  14 H :    0.144838
  15 H :    0.103410
  16 C :   -0.146005
  17 C :   -0.296662
  18 H :    0.157616
  19 H :    0.155392
  20 H :    0.123645
  21 H :    0.111666
Sum of atomic charges:   -0.0000000

LOEWDIN ATOMIC CHARGES
----------------------
   0 C :   -0.132764
   1 C :   -0.068951
   2 C :   -0.129698
   3 C :   -0.055845
   4 C :   -0.054691
   5 C :   -0.136848
   6 H :    0.138472
   7 C :   -0.334101
   8 H :    0.134223
   9 H :    0.139445
  10 H :    0.139444
  11 C :   -0.333603
  12 H :    0.139118
  13 H :    0.139082
  14 H :    0.134161
  15 H :    0.137695
  16 C :   -0.139743
  17 C :   -0.266859
  18 H :    0.134036
  19 H :    0.139618
  20 H :    0.138821
  21 H :    0.138988

  Mayer bond orders larger than 0.100000
B(  0-C ,  1-C ) :   1.3443 B(  0-C ,  5-C ) :   1.3992 B(  0-C , 21-H ) :   0.9574
B(  1-C ,  2-C ) :   1.3250 B(  1-C , 16-C ) :   1.0816 B(  2-C ,  3-C ) :   1.4048
B(  2-C , 15-H ) :   0.9601 B(  3-C ,  4-C ) :   1.3896 B(  3-C , 11-C ) :   1.1112
B(  4-C ,  5-C ) :   1.3912 B(  4-C ,  7-C ) :   1.1142 B(  5-C ,  6-H ) :   0.9599
B(  7-C ,  8-H ) :   0.9395 B(  7-C ,  9-H ) :   0.9252 B(  7-C , 10-H ) :   0.9252
B( 11-C , 12-H ) :   0.9255 B( 11-C , 13-H ) :   0.9256 B( 11-C , 14-H ) :   0.9393
B( 16-C , 17-C ) :   1.9629 B( 16-C , 20-H ) :   0.9347 B( 17-C , 18-H ) :   0.9077
B( 17-C , 19-H ) :   0.9213

Dispersion correction           -0.020176289
FINAL SINGLE POINT ENERGY      -387.536258416008

DIPOLE MOMENT
-------------

Method             : SCF
Type of density    : Electron Density
Multiplicity       :   1
Irrep              :   0
Energy             :  -387.5160821271584268 Eh
Relativity type    :
Basis              : AO
                                X                 Y                 Z
Electronic contribution:      4.082905998      -1.072608706      -0.000414953
Nuclear contribution   :     -4.613025668       1.151670622       0.000624769
                        -----------------------------------------
Total Dipole Moment    :     -0.530119670       0.079061917       0.000209816
                        -----------------------------------------
Magnitude (a.u.)       :      0.535982924
Magnitude (Debye)      :      1.362360325

Rotational constants in cm-1:             0.097253             0.028558             0.022260
Rotational constants in MHz :          2915.568218           856.160118           667.349193

                             ****ORCA TERMINATED NORMALLY****
TOTAL RUN TIME: 0 days 0 hours 3 minutes 58 seconds 467 msec
