                         Program Version 6.0.0  -   RELEASE  -
|  1> !r2SCANh aug-cc-pVTZ d3 TightSCF SlowConv RIJCOSX defgrid2
|  2>
|  3> %pal
|  4> nprocs 4
|  5> end
|  6>
|  7> %scf
|  8> MaxIter 1500
|  9> end
| 10>
| 11> %maxcore 3000
| 12>
| 13> !CPCM
| 14> %cpcm smd true
| 15> SMDsolvent "MeCN"
| 16> surfacetype gepol_ses
| 17> rsolv 2.19
| 18> end
| 19>
| 20> * xyz 0 1
| 21> C           0.43295274103395     -0.56555208137454     -0.12382569822175
| 22> C           1.51815041093286     -1.44256145132370      0.03465132264486
| 23> C           2.82291605458460     -0.98131423085206      0.16263470248186
| 24> C           3.07724805433695      0.38906543613859      0.10395417081958
| 25> C           2.01798434399991      1.27254312720111     -0.06183531891651
| 26> C           0.68778075786998      0.82920111453005     -0.15098740877372
| 27> C          -0.35699948321221      1.85751329332423     -0.25045884909377
| 28> C          -1.60080927987703      1.81370681826415      0.25464129384079
| 29> C          -2.59473145726124      2.92199907643296      0.15011601671836
| 30> H          -3.51573836514016      2.58612139620194     -0.36308088945608
| 31> H          -2.90680231015057      3.27360328807964      1.15160677275170
| 32> H          -2.18833105696491      3.78355768338862     -0.40632712366609
| 33> H          -1.92003588165608      0.92155321305987      0.80823791464133
| 34> H          -0.04094477526312      2.78794694041111     -0.74417993319491
| 35> H           2.21326017353196      2.34900579584862     -0.10386391754355
| 36> H           4.10071513363350      0.76784189558933      0.18022490580490
| 37> H           3.64525794250500     -1.69329903916305      0.28019138928457
| 38> H           1.32601592423891     -2.51911318521029      0.01809993008456
| 39> C          -0.91691070467914     -1.11038869710857     -0.32534444063154
| 40> C          -1.40376577306444     -2.22814293611418      0.23571081912874
| 41> C          -2.75893884419196     -2.79406285722768     -0.03123293907509
| 42> H          -3.32366890460505     -2.17343167413791     -0.74746352614549
| 43> H          -2.69094682094056     -3.81739069188698     -0.44702594213530
| 44> H          -3.35245768734527     -2.87433845188828      0.89900228994579
| 45> H          -0.77994682614443     -2.77248476472153      0.95866929401903
| 46> H          -1.56550936617145     -0.54211921746145     -1.00577693531227
| 47> *
| 48>
| 49>                          ****END OF INPUT****

CARTESIAN COORDINATES (ANGSTROEM)
---------------------------------
  C      0.432953   -0.565552   -0.123826
  C      1.518150   -1.442561    0.034651
  C      2.822916   -0.981314    0.162635
  C      3.077248    0.389065    0.103954
  C      2.017984    1.272543   -0.061835
  C      0.687781    0.829201   -0.150987
  C     -0.356999    1.857513   -0.250459
  C     -1.600809    1.813707    0.254641
  C     -2.594731    2.921999    0.150116
  H     -3.515738    2.586121   -0.363081
  H     -2.906802    3.273603    1.151607
  H     -2.188331    3.783558   -0.406327
  H     -1.920036    0.921553    0.808238
  H     -0.040945    2.787947   -0.744180
  H      2.213260    2.349006   -0.103864
  H      4.100715    0.767842    0.180225
  H      3.645258   -1.693299    0.280191
  H      1.326016   -2.519113    0.018100
  C     -0.916911   -1.110389   -0.325344
  C     -1.403766   -2.228143    0.235711
  C     -2.758939   -2.794063   -0.031233
  H     -3.323669   -2.173432   -0.747464
  H     -2.690947   -3.817391   -0.447026
  H     -3.352458   -2.874338    0.899002
  H     -0.779947   -2.772485    0.958669
  H     -1.565509   -0.542119   -1.005777

 Total Charge           Charge          ....    0
 Multiplicity           Mult            ....    1
 Number of Electrons    NEL             ....   86
 Basis Dimension        Dim             ....  874

ORBITAL ENERGIES
----------------

  NO   OCC          E(Eh)            E(eV)
   0   2.0000     -10.173442      -276.8334
   1   2.0000     -10.172921      -276.8193
   2   2.0000     -10.161350      -276.5044
   3   2.0000     -10.159240      -276.4470
   4   2.0000     -10.159005      -276.4406
   5   2.0000     -10.158577      -276.4289
   6   2.0000     -10.158346      -276.4227
   7   2.0000     -10.158021      -276.4138
   8   2.0000     -10.155938      -276.3571
   9   2.0000     -10.153793      -276.2987
  10   2.0000     -10.147603      -276.1303
  11   2.0000     -10.146606      -276.1032
  12   2.0000      -0.866861       -23.5885
  13   2.0000      -0.800503       -21.7828
  14   2.0000      -0.796382       -21.6707
  15   2.0000      -0.748825       -20.3766
  16   2.0000      -0.745393       -20.2832
  17   2.0000      -0.683314       -18.5939
  18   2.0000      -0.666060       -18.1244
  19   2.0000      -0.605104       -16.4657
  20   2.0000      -0.592030       -16.1100
  21   2.0000      -0.543767       -14.7967
  22   2.0000      -0.537112       -14.6155
  23   2.0000      -0.496513       -13.5108
  24   2.0000      -0.461111       -12.5475
  25   2.0000      -0.452443       -12.3116
  26   2.0000      -0.432045       -11.7565
  27   2.0000      -0.416174       -11.3247
  28   2.0000      -0.413223       -11.2444
  29   2.0000      -0.397328       -10.8118
  30   2.0000      -0.396168       -10.7803
  31   2.0000      -0.393467       -10.7068
  32   2.0000      -0.375538       -10.2189
  33   2.0000      -0.365775        -9.9532
  34   2.0000      -0.363149        -9.8818
  35   2.0000      -0.341482        -9.2922
  36   2.0000      -0.340033        -9.2528
  37   2.0000      -0.326051        -8.8723
  38   2.0000      -0.319147        -8.6844
  39   2.0000      -0.283461        -7.7134
  40   2.0000      -0.278768        -7.5857
  41   2.0000      -0.232972        -6.3395
  42   2.0000      -0.210220        -5.7204
  43   0.0000      -0.049838        -1.3562
  44   0.0000      -0.036566        -0.9950
  45   0.0000       0.006185         0.1683
  46   0.0000       0.015567         0.4236
  47   0.0000       0.020214         0.5501

MULLIKEN ATOMIC CHARGES
-----------------------
   0 C :    1.063547
   1 C :   -1.051293
   2 C :   -0.626739
   3 C :   -0.282579
   4 C :   -1.155273
   5 C :    1.530460
   6 C :   -0.268606
   7 C :   -0.070109
   8 C :   -0.847473
   9 H :    0.205403
  10 H :    0.182868
  11 H :    0.233457
  12 H :    0.219969
  13 H :    0.056780
  14 H :   -0.025176
  15 H :    0.593319
  16 H :    0.486878
  17 H :   -0.019706
  18 C :    0.272500
  19 C :   -0.543909
  20 C :   -0.808496
  21 H :    0.234770
  22 H :    0.198968
  23 H :    0.184609
  24 H :    0.164025
  25 H :    0.071804
Sum of atomic charges:   -0.0000000

LOEWDIN ATOMIC CHARGES
----------------------
   0 C :   -0.126517
   1 C :    0.197805
   2 C :    0.191358
   3 C :    0.188749
   4 C :    0.195568
   5 C :   -0.129209
   6 C :    0.200523
   7 C :    0.195036
   8 C :    0.558568
   9 H :   -0.162607
  10 H :   -0.162902
  11 H :   -0.172467
  12 H :   -0.183555
  13 H :   -0.175419
  14 H :   -0.167044
  15 H :   -0.171262
  16 H :   -0.170847
  17 H :   -0.175373
  18 C :    0.173885
  19 C :    0.198995
  20 C :    0.553470
  21 H :   -0.172336
  22 H :   -0.164647
  23 H :   -0.164902
  24 H :   -0.171231
  25 H :   -0.183642

  Mayer bond orders larger than 0.100000
B(  0-C ,  1-C ) :   0.5266 B(  0-C ,  2-C ) :   0.2006 B(  0-C ,  3-C ) :  -0.2753
B(  0-C ,  5-C ) :   0.9117 B(  0-C ,  6-C ) :   0.1938 B(  0-C , 17-H ) :  -0.1102
B(  0-C , 24-H ) :  -0.1492 B(  1-C ,  2-C ) :   1.0656 B(  1-C ,  5-C ) :  -0.3020
B(  1-C , 17-H ) :   1.4918 B(  1-C , 18-C ) :   0.2824 B(  1-C , 19-C ) :   0.1257
B(  2-C ,  3-C ) :   1.0250 B(  2-C ,  5-C ) :  -0.1991 B(  2-C , 16-H ) :   0.5694
B(  3-C ,  4-C ) :   0.8889 B(  3-C ,  5-C ) :   0.2943 B(  3-C , 15-H ) :   0.3977
B(  4-C ,  5-C ) :   0.1745 B(  4-C , 14-H ) :   1.4979 B(  5-C , 12-H ) :  -0.1757
B(  6-C ,  7-C ) :   1.0995 B(  6-C , 13-H ) :   1.1461 B(  7-C ,  8-C ) :   0.6704
B(  7-C , 12-H ) :   1.1069 B(  7-C , 13-H ) :  -0.1561 B(  8-C ,  9-H ) :   1.0071
B(  8-C , 10-H ) :   1.0501 B(  8-C , 11-H ) :   0.9453 B( 18-C , 19-C ) :   0.9511
B( 18-C , 25-H ) :   1.1150 B( 19-C , 20-C ) :   0.7093 B( 19-C , 24-H ) :   1.1151
B( 19-C , 25-H ) :  -0.1227 B( 20-C , 21-H ) :   0.9646 B( 20-C , 22-H ) :   0.9998
B( 20-C , 23-H ) :   1.0500

Dispersion correction           -0.009224080
FINAL SINGLE POINT ENERGY      -465.559030705179

DIPOLE MOMENT
-------------

Method             : SCF
Type of density    : Electron Density
Multiplicity       :   1
Irrep              :   0
Energy             :  -465.5498066247498627 Eh
Relativity type    :
Basis              : AO
                                X                 Y                 Z
Electronic contribution:      9.810399755      -0.102688756      -0.316352934
Nuclear contribution   :    -10.320917319       0.104061334       0.410695045
                        -----------------------------------------
Total Dipole Moment    :     -0.510517565       0.001372579       0.094342111
                        -----------------------------------------
Magnitude (a.u.)       :      0.519163271
Magnitude (Debye)      :      1.319608164

Rotational constants in cm-1:             0.032124             0.026217             0.014718
Rotational constants in MHz :           963.065643           785.959094           441.247217

                             ****ORCA TERMINATED NORMALLY****
TOTAL RUN TIME: 0 days 0 hours 12 minutes 24 seconds 973 msec
