                         Program Version 6.0.0  -   RELEASE  -
|  1> !r2SCAN aug-cc-pVTZ d3 TightSCF SlowConv RIJCOSX defgrid2
|  2>
|  3> %pal
|  4> nprocs 4
|  5> end
|  6>
|  7> %scf
|  8> MaxIter 1500
|  9> end
| 10>
| 11> %maxcore 3000
| 12>
| 13> !CPCM
| 14> %cpcm smd true
| 15> SMDsolvent "MeCN"
| 16> surfacetype gepol_ses
| 17> rsolv 2.19
| 18> end
| 19>
| 20> * xyz 0 1
| 21> C          -0.22997754219743     -1.20609091856311     -0.00046087004095
| 22> C           1.16128384069195     -1.20031253591911      0.00041394587123
| 23> C           1.87254503831811     -0.00003037040882      0.00072012391754
| 24> C           1.16131377140118      1.20026930808148      0.00041360790641
| 25> C          -0.22994707632405      1.20608173416170     -0.00046177829750
| 26> C          -0.95218511536342      0.00000427823419     -0.00003761551285
| 27> N          -2.33340895991450      0.00002157595282      0.04653779431621
| 28> H          -2.79855452143895      0.84821355690402     -0.25483389378867
| 29> H          -2.79857532928795     -0.84816111010491     -0.25482834496791
| 30> H          -0.77344381556999      2.15676174884881      0.00298430668171
| 31> H           1.69817818740019      2.15419904894576     -0.00079679497611
| 32> H           2.96571339060225     -0.00004426352233      0.00028554339021
| 33> H           1.69812535441562     -2.15425546581862     -0.00079688995407
| 34> H          -0.77349762273302     -2.15675758679187      0.00298456545474
| 35> *
| 36>
| 37>                          ****END OF INPUT****

CARTESIAN COORDINATES (ANGSTROEM)
---------------------------------
  C     -0.229978   -1.206091   -0.000461
  C      1.161284   -1.200313    0.000414
  C      1.872545   -0.000030    0.000720
  C      1.161314    1.200269    0.000414
  C     -0.229947    1.206082   -0.000462
  C     -0.952185    0.000004   -0.000038
  N     -2.333409    0.000022    0.046538
  H     -2.798555    0.848214   -0.254834
  H     -2.798575   -0.848161   -0.254828
  H     -0.773444    2.156762    0.002984
  H      1.698178    2.154199   -0.000797
  H      2.965713   -0.000044    0.000286
  H      1.698125   -2.154255   -0.000797
  H     -0.773498   -2.156758    0.002985

 Total Charge           Charge          ....    0
 Multiplicity           Mult            ....    1
 Number of Electrons    NEL             ....   50
 Basis Dimension        Dim             ....  483

ORBITAL ENERGIES
----------------

  NO   OCC          E(Eh)            E(eV)
   0   2.0000     -14.164568      -385.4375
   1   2.0000     -10.079135      -274.2672
   2   2.0000     -10.037187      -273.1257
   3   2.0000     -10.037173      -273.1253
   4   2.0000     -10.030898      -272.9546
   5   2.0000     -10.030891      -272.9544
   6   2.0000     -10.026834      -272.8440
   7   2.0000      -0.883100       -24.0304
   8   2.0000      -0.801327       -21.8052
   9   2.0000      -0.709173       -19.2976
  10   2.0000      -0.689899       -18.7731
  11   2.0000      -0.575326       -15.6554
  12   2.0000      -0.562655       -15.3106
  13   2.0000      -0.488281       -13.2868
  14   2.0000      -0.469735       -12.7821
  15   2.0000      -0.440766       -11.9939
  16   2.0000      -0.394927       -10.7465
  17   2.0000      -0.390686       -10.6311
  18   2.0000      -0.379328       -10.3220
  19   2.0000      -0.360776        -9.8172
  20   2.0000      -0.321799        -8.7566
  21   2.0000      -0.302127        -8.2213
  22   2.0000      -0.289804        -7.8860
  23   2.0000      -0.236329        -6.4308
  24   2.0000      -0.187434        -5.1003
  25   0.0000      -0.034395        -0.9359
  26   0.0000      -0.017436        -0.4745
  27   0.0000       0.007592         0.2066
  28   0.0000       0.021405         0.5824
  29   0.0000       0.026935         0.7329

MULLIKEN ATOMIC CHARGES
-----------------------
   0 C :   -0.942555
   1 C :   -0.272485
   2 C :   -0.520480
   3 C :   -0.272488
   4 C :   -0.942579
   5 C :    1.298239
   6 N :   -0.581561
   7 H :    0.047093
   8 H :    0.047092
   9 H :    0.485669
  10 H :    0.331310
  11 H :    0.505771
  12 H :    0.331309
  13 H :    0.485666
Sum of atomic charges:   -0.0000000

LOEWDIN ATOMIC CHARGES
----------------------
   0 C :    0.196846
   1 C :    0.157397
   2 C :    0.158566
   3 C :    0.157397
   4 C :    0.196846
   5 C :   -0.274866
   6 N :    0.856326
   7 H :   -0.284005
   8 H :   -0.284005
   9 H :   -0.171560
  10 H :   -0.175769
  11 H :   -0.185842
  12 H :   -0.175769
  13 H :   -0.171560

  Mayer bond orders larger than 0.100000
B(  0-C ,  1-C ) :   1.1196 B(  0-C ,  2-C ) :   0.3385 B(  0-C ,  3-C ) :  -0.1859
B(  0-C ,  4-C ) :   0.5742 B(  0-C ,  5-C ) :   0.5609 B(  0-C , 13-H ) :   0.3019
B(  1-C ,  2-C ) :   1.0153 B(  1-C ,  3-C ) :  -0.1374 B(  1-C ,  4-C ) :  -0.1859
B(  1-C ,  5-C ) :  -0.2178 B(  1-C , 12-H ) :   0.8448 B(  2-C ,  3-C ) :   1.0153
B(  2-C ,  4-C ) :   0.3385 B(  2-C ,  5-C ) :  -0.1194 B(  2-C , 11-H ) :   0.5045
B(  3-C ,  4-C ) :   1.1196 B(  3-C ,  5-C ) :  -0.2178 B(  3-C , 10-H ) :   0.8448
B(  4-C ,  5-C ) :   0.5609 B(  4-C ,  9-H ) :   0.3019 B(  5-C ,  6-N ) :   0.4949
B(  5-C ,  9-H ) :   0.1469 B(  5-C , 13-H ) :   0.1469 B(  6-N ,  7-H ) :   1.0864
B(  6-N ,  8-H ) :   1.0864

Dispersion correction           -0.003784103
FINAL SINGLE POINT ENERGY      -287.561045479648

DIPOLE MOMENT
-------------

Method             : SCF
Type of density    : Electron Density
Multiplicity       :   1
Irrep              :   0
Energy             :  -287.5572613770482917 Eh
Relativity type    :
Basis              : AO
                                X                 Y                 Z
Electronic contribution:     -0.158041954       0.000003984       0.043097926
Nuclear contribution   :     -0.743352745       0.000007126      -0.484101489
                        -----------------------------------------
Total Dipole Moment    :     -0.901394699       0.000011110      -0.441003564
                        -----------------------------------------
Magnitude (a.u.)       :      1.003492175
Magnitude (Debye)      :      2.550674404

Rotational constants in cm-1:             0.187523             0.086550             0.059285
Rotational constants in MHz :          5621.786837          2594.705838          1777.328239

                             ****ORCA TERMINATED NORMALLY****
TOTAL RUN TIME: 0 days 0 hours 1 minutes 54 seconds 411 msec
