                         Program Version 6.0.0  -   RELEASE  -
|  1> !B3LYP opt aug-cc-pVTZ d3 TightSCF SlowConv RIJCOSX defgrid2
|  2>
|  3> %pal
|  4> nprocs 8
|  5> end
|  6>
|  7> %scf
|  8> MaxIter 1500
|  9> end
| 10>
| 11> %maxcore 3500
| 12>
| 13> !CPCM
| 14> %cpcm smd true
| 15> SMDsolvent "MeCN"
| 16> surfacetype gepol_ses
| 17> rsolv 2.19
| 18> end
| 19>
| 20> * xyz 0 1
| 21>   C           1.35661311001034      0.08242353673381     -0.04830147992154
| 22>   C           0.72528734400678      1.33237499260851      0.02931980589731
| 23>   C          -0.65716684626784      1.42571283843268      0.04302512633637
| 24>   C          -1.44754625606451      0.26653460954742      0.00874339988909
| 25>   C          -0.82552870874395     -0.98502153376474     -0.04770168852446
| 26>   C           0.56772235704198     -1.06633130194090     -0.08313298846277
| 27>   H           1.05006188676245     -2.04577688056741     -0.14354433447971
| 28>   H          -1.41135553820799     -1.90566385705075     -0.07389044457674
| 29>   O          -2.78063858244739      0.45554290336633      0.03645550634804
| 30>   C          -3.62283453444167     -0.66142074230683      0.01078196288993
| 31>   H          -4.65283077190408     -0.27592428677814      0.04102787975267
| 32>   H          -3.48787720923621     -1.25466269618222     -0.91406269819965
| 33>   H          -3.45860421924221     -1.31813897835911      0.88673287617431
| 34>   H          -1.16047233306293      2.39441311771435      0.09515969980486
| 35>   H           1.33361129819119      2.23967992641979      0.08145593960365
| 36>   S           3.13145786803727     -0.06127748319567     -0.01892864657318
| 37>   H           3.36519883556877      0.49010163532289     -1.23773021595817
| 38> *
| 39>
| 40>                          ****END OF INPUT****
 Total Charge           Charge          ....    0
 Multiplicity           Mult            ....    1
 Number of Electrons    NEL             ....   74
Dispersion correction           -0.031489015
FINAL SINGLE POINT ENERGY      -744.892577842344
Dispersion correction             ... done (  0.0 sec)
Dispersion correction           -0.031506359
FINAL SINGLE POINT ENERGY      -744.893883596133
Dispersion correction             ... done (  0.0 sec)
Dispersion correction           -0.031516055
FINAL SINGLE POINT ENERGY      -744.894075203059
Dispersion correction             ... done (  0.1 sec)
FINAL SINGLE POINT ENERGY      -744.894187139746
FINAL SINGLE POINT ENERGY      -744.894350710550
FINAL SINGLE POINT ENERGY      -744.894416558842
FINAL SINGLE POINT ENERGY      -744.894562860377
FINAL SINGLE POINT ENERGY      -744.894665672857
FINAL SINGLE POINT ENERGY      -744.894717267164
FINAL SINGLE POINT ENERGY      -744.894727405762
FINAL SINGLE POINT ENERGY      -744.894737678742
FINAL SINGLE POINT ENERGY      -744.894743760615
Dispersion correction             ... done (  0.1 sec)
Dispersion correction           -0.031574372
FINAL SINGLE POINT ENERGY      -744.894751911321
Dispersion correction             ... done (  0.1 sec)
Dispersion correction           -0.031574747
FINAL SINGLE POINT ENERGY      -744.894749809941
Dispersion correction             ... done (  0.0 sec)
                    ***********************HURRAY********************

CARTESIAN COORDINATES (ANGSTROEM)
---------------------------------
  C      1.343509   -0.003216   -0.220666
  C      0.753664    1.260885   -0.168153
  C     -0.621366    1.386498   -0.073388
  C     -1.436647    0.252984   -0.033583
  C     -0.851843   -1.010680   -0.088932
  C      0.531942   -1.130760   -0.179722
  H      0.968702   -2.119996   -0.217369
  H     -1.453248   -1.905563   -0.060299
  O     -2.775481    0.477350    0.058846
  C     -3.642619   -0.654928    0.106362
  H     -4.651013   -0.256201    0.176069
  H     -3.553381   -1.259036   -0.798766
  H     -3.436381   -1.273670    0.982166
  H     -1.077661    2.366049   -0.030230
  H      1.365734    2.151710   -0.201792
  S      3.109251   -0.232590   -0.350419
  H      3.451934    1.063731   -0.234715

 Multiplicity           Mult            ....    1
 Number of Electrons    NEL             ....   74
 Basis Dimension        Dim             ....  602

ORBITAL ENERGIES
----------------

  NO   OCC          E(Eh)            E(eV)
   0   2.0000     -88.894539     -2418.9434
   1   2.0000     -19.158081      -521.3179
   2   2.0000     -10.234268      -278.4886
   3   2.0000     -10.211571      -277.8710
   4   2.0000     -10.207865      -277.7701
   5   2.0000     -10.180493      -277.0253
   6   2.0000     -10.180014      -277.0123
   7   2.0000     -10.174895      -276.8730
   8   2.0000     -10.174064      -276.8504
   9   2.0000      -7.946436      -216.2335
  10   2.0000      -5.910647      -160.8369
  11   2.0000      -5.906977      -160.7370
  12   2.0000      -5.902720      -160.6212
  13   2.0000      -1.064385       -28.9634
  14   2.0000      -0.866140       -23.5689
  15   2.0000      -0.786267       -21.3954
  16   2.0000      -0.755421       -20.5561
  17   2.0000      -0.721855       -19.6427
  18   2.0000      -0.675742       -18.3879
  19   2.0000      -0.616753       -16.7827
  20   2.0000      -0.584202       -15.8969
  21   2.0000      -0.532598       -14.4927
  22   2.0000      -0.493161       -13.4196
  23   2.0000      -0.467567       -12.7232
  24   2.0000      -0.463696       -12.6178
  25   2.0000      -0.446287       -12.1441
  26   2.0000      -0.426803       -11.6139
  27   2.0000      -0.416745       -11.3402
  28   2.0000      -0.391516       -10.6537
  29   2.0000      -0.388132       -10.5616
  30   2.0000      -0.361761        -9.8440
  31   2.0000      -0.341191        -9.2843
  32   2.0000      -0.338295        -9.2055
  33   2.0000      -0.328425        -8.9369
  34   2.0000      -0.275731        -7.5030
  35   2.0000      -0.262859        -7.1528
  36   2.0000      -0.207040        -5.6338
  37   0.0000      -0.020405        -0.5552
  38   0.0000      -0.007735        -0.2105
  39   0.0000      -0.004988        -0.1357
  40   0.0000       0.003531         0.0961
  41   0.0000       0.010049         0.2735

MULLIKEN ATOMIC CHARGES
-----------------------
   0 C :    0.762613
   1 C :   -0.710547
   2 C :   -0.868475
   3 C :    1.183578
   4 C :   -0.321438
   5 C :   -0.932266
   6 H :    0.422087
   7 H :    0.437349
   8 O :   -0.699063
   9 C :   -0.667165
  10 H :    0.254619
  11 H :    0.283988
  12 H :    0.282609
  13 H :    0.501757
  14 H :    0.350331
  15 S :   -0.397385
  16 H :    0.117407
Sum of atomic charges:   -0.0000000

LOEWDIN ATOMIC CHARGES
----------------------
   0 C :   -0.579457
   1 C :    0.112819
   2 C :    0.190968
   3 C :   -0.405561
   4 C :    0.193048
   5 C :    0.098513
   6 H :   -0.191562
   7 H :   -0.196628
   8 O :    0.592928
   9 C :    0.348341
  10 H :   -0.178477
  11 H :   -0.170263
  12 H :   -0.169665
  13 H :   -0.176574
  14 H :   -0.193547
  15 S :    1.286008
  16 H :   -0.560890

  Mayer bond orders larger than 0.100000
B(  0-C ,  1-C ) :   0.9875 B(  0-C ,  5-C ) :   1.1102 B(  0-C , 15-S ) :   0.3933
B(  1-C ,  2-C ) :   1.3174 B(  1-C ,  3-C ) :  -0.3128 B(  1-C , 14-H ) :   0.7711
B(  2-C ,  3-C ) :   0.6758 B(  2-C ,  4-C ) :   0.1751 B(  2-C ,  8-O ) :   0.2963
B(  2-C , 13-H ) :   0.4664 B(  3-C ,  4-C ) :   1.0140 B(  3-C ,  5-C ) :  -0.2458
B(  3-C ,  8-O ) :   0.3425 B(  4-C ,  5-C ) :   0.9803 B(  4-C ,  7-H ) :   0.4950
B(  5-C ,  6-H ) :   0.7053 B(  5-C , 15-S ) :   0.1493 B(  8-O ,  9-C ) :   0.9827
B(  9-C , 10-H ) :   0.9750 B(  9-C , 11-H ) :   0.9102 B(  9-C , 12-H ) :   0.9117
B( 15-S , 16-H ) :   1.0601

Dispersion correction           -0.031575068
FINAL SINGLE POINT ENERGY      -744.894748825531

DIPOLE MOMENT
-------------

Method             : SCF
Type of density    : Electron Density
Multiplicity       :   1
Irrep              :   0
Energy             :  -744.8631737570657378 Eh
Relativity type    :
Basis              : AO
                                X                 Y                 Z
Electronic contribution:      7.159891737       0.963750320      -0.550098980
Nuclear contribution   :     -7.982027728      -1.150860529       0.642932795
                        -----------------------------------------
Total Dipole Moment    :     -0.822135991      -0.187110210       0.092833815
                        -----------------------------------------
Magnitude (a.u.)       :      0.848254641
Magnitude (Debye)      :      2.156091950

Rotational constants in cm-1:             0.159503             0.023026             0.020200
Rotational constants in MHz :          4781.769022           690.315885           605.573712

                             ****ORCA TERMINATED NORMALLY****
TOTAL RUN TIME: 0 days 0 hours 57 minutes 37 seconds 144 msec
