                         Program Version 6.0.0  -   RELEASE  -
|  1> !PBE0 freq aug-cc-pVTZ d3 TightSCF SlowConv RIJCOSX defgrid2
|  2>
|  3> %pal
|  4> nprocs 12
|  5> end
|  6>
|  7> %scf
|  8> MaxIter 1500
|  9> end
| 10>
| 11> %maxcore 5000
| 12>
| 13> !CPCM
| 14> %cpcm smd true
| 15> SMDsolvent "MeCN"
| 16> surfacetype gepol_ses
| 17> rsolv 2.19
| 18> end
| 19>
| 20> * xyz 1 2
| 21>   C           1.35423168573074     -0.83120208483891      0.60748599233717
| 22>   C           2.61548152908295     -1.37919905473566      0.62028781699726
| 23>   C           3.69305290399427     -0.67776344754674      0.07893191510268
| 24>   C           3.51483523448736      0.59956162379208     -0.46064803554183
| 25>   C           2.26739427513915      1.17308652136513     -0.47152494478391
| 26>   C           1.18640419737287      0.43813421927932      0.03365371945954
| 27>   O           0.00003597198491      1.06879234843169     -0.00035379661164
| 28>   C          -1.18645214992888      0.43806225431071     -0.03394838323585
| 29>   C          -2.26731491451031      1.17303603763476      0.47128490797063
| 30>   C          -3.51478356450288      0.59946642205633      0.46069896840848
| 31>   C          -3.69306229092087     -0.67788020477284     -0.07876439928168
| 32>   C          -2.61557541080940     -1.37927868781672     -0.62028641542006
| 33>   C          -1.35429593903183     -0.83125882829356     -0.60763756547791
| 34>   H          -0.52194702211177     -1.33514150420127     -1.07888388191367
| 35>   H          -2.77373409340813     -2.34673144812847     -1.07755414023313
| 36>   H          -4.68194198896063     -1.11714094578013     -0.09985270732251
| 37>   H          -4.35991564883122      1.13819541136944      0.86766797792562
| 38>   H          -2.08959910084635      2.15765176230599      0.88303627276710
| 39>   H           2.08968057183498      2.15760771551617     -0.88350696076325
| 40>   H           4.36006126326922      1.13823489878157     -0.86750500931391
| 41>   H           4.68195839087513     -1.11695418988576      0.10027802448963
| 42>   H           2.77366242789513     -2.34653814492832      1.07783495892037
| 43>   H           0.52185447219553     -1.33498497391480      1.07877128552091
| 44> *
| 45>
| 46>                          ****END OF INPUT****

CARTESIAN COORDINATES (ANGSTROEM)
---------------------------------
  C      1.354232   -0.831202    0.607486
  C      2.615482   -1.379199    0.620288
  C      3.693053   -0.677763    0.078932
  C      3.514835    0.599562   -0.460648
  C      2.267394    1.173087   -0.471525
  C      1.186404    0.438134    0.033654
  O      0.000036    1.068792   -0.000354
  C     -1.186452    0.438062   -0.033948
  C     -2.267315    1.173036    0.471285
  C     -3.514784    0.599466    0.460699
  C     -3.693062   -0.677880   -0.078764
  C     -2.615575   -1.379279   -0.620286
  C     -1.354296   -0.831259   -0.607638
  H     -0.521947   -1.335142   -1.078884
  H     -2.773734   -2.346731   -1.077554
  H     -4.681942   -1.117141   -0.099853
  H     -4.359916    1.138195    0.867668
  H     -2.089599    2.157652    0.883036
  H      2.089681    2.157608   -0.883507
  H      4.360061    1.138235   -0.867505
  H      4.681958   -1.116954    0.100278
  H      2.773662   -2.346538    1.077835
  H      0.521854   -1.334985    1.078771

 Total Charge           Charge          ....    1
 Multiplicity           Mult            ....    2
 Number of Electrons    NEL             ....   89
 Basis Dimension        Dim             ....  828

ORBITAL ENERGIES
----------------
                 SPIN UP ORBITALS
  NO   OCC          E(Eh)            E(eV)
   0   1.0000     -19.346369      -526.4415
   1   1.0000     -10.345970      -281.5281
   2   1.0000     -10.345947      -281.5275
   3   1.0000     -10.271184      -279.4931
   4   1.0000     -10.271118      -279.4913
   5   1.0000     -10.269218      -279.4396
   6   1.0000     -10.269183      -279.4387
   7   1.0000     -10.266882      -279.3761
   8   1.0000     -10.266863      -279.3755
   9   1.0000     -10.258962      -279.1606
  10   1.0000     -10.258961      -279.1605
  11   1.0000     -10.258951      -279.1602
  12   1.0000     -10.258944      -279.1601
  13   1.0000      -1.207105       -32.8470
  14   1.0000      -0.936888       -25.4940
  15   1.0000      -0.917348       -24.9623
  16   1.0000      -0.840950       -22.8834
  17   1.0000      -0.817326       -22.2406
  18   1.0000      -0.809494       -22.0275
  19   1.0000      -0.786155       -21.3924
  20   1.0000      -0.711656       -19.3651
  21   1.0000      -0.680378       -18.5140
  22   1.0000      -0.658900       -17.9296
  23   1.0000      -0.633787       -17.2462
  24   1.0000      -0.604661       -16.4537
  25   1.0000      -0.560414       -15.2496
  26   1.0000      -0.546475       -14.8704
  27   1.0000      -0.543873       -14.7995
  28   1.0000      -0.533304       -14.5119
  29   1.0000      -0.491313       -13.3693
  30   1.0000      -0.486933       -13.2501
  31   1.0000      -0.473796       -12.8927
  32   1.0000      -0.473147       -12.8750
  33   1.0000      -0.463656       -12.6167
  34   1.0000      -0.459289       -12.4979
  35   1.0000      -0.425234       -11.5712
  36   1.0000      -0.410727       -11.1764
  37   1.0000      -0.407810       -11.0971
  38   1.0000      -0.400899       -10.9090
  39   1.0000      -0.383039       -10.4230
  40   1.0000      -0.381300       -10.3757
  41   1.0000      -0.311996        -8.4899
  42   1.0000      -0.307921        -8.3790
  43   1.0000      -0.303501        -8.2587
  44   1.0000      -0.278704        -7.5839
  45   0.0000      -0.055681        -1.5152
  46   0.0000      -0.042582        -1.1587
  47   0.0000      -0.035613        -0.9691
  48   0.0000      -0.027872        -0.7584
  49   0.0000      -0.002517        -0.0685

                 SPIN DOWN ORBITALS
  NO   OCC          E(Eh)            E(eV)
   0   1.0000     -19.338760      -526.2344
   1   1.0000     -10.345103      -281.5046
   2   1.0000     -10.345083      -281.5040
   3   1.0000     -10.269283      -279.4414
   4   1.0000     -10.269218      -279.4396
   5   1.0000     -10.265782      -279.3461
   6   1.0000     -10.265752      -279.3453
   7   1.0000     -10.265275      -279.3323
   8   1.0000     -10.265256      -279.3318
   9   1.0000     -10.259920      -279.1866
  10   1.0000     -10.259912      -279.1864
  11   1.0000     -10.259767      -279.1825
  12   1.0000     -10.259765      -279.1824
  13   1.0000      -1.193409       -32.4743
  14   1.0000      -0.931850       -25.3569
  15   1.0000      -0.912260       -24.8239
  16   1.0000      -0.835995       -22.7486
  17   1.0000      -0.814808       -22.1721
  18   1.0000      -0.807162       -21.9640
  19   1.0000      -0.776696       -21.1350
  20   1.0000      -0.705976       -19.2106
  21   1.0000      -0.678165       -18.4538
  22   1.0000      -0.654977       -17.8228
  23   1.0000      -0.630447       -17.1553
  24   1.0000      -0.602350       -16.3908
  25   1.0000      -0.557436       -15.1686
  26   1.0000      -0.540848       -14.7172
  27   1.0000      -0.533070       -14.5056
  28   1.0000      -0.522854       -14.2276
  29   1.0000      -0.485255       -13.2044
  30   1.0000      -0.485129       -13.2010
  31   1.0000      -0.471291       -12.8245
  32   1.0000      -0.471131       -12.8201
  33   1.0000      -0.458731       -12.4827
  34   1.0000      -0.453044       -12.3280
  35   1.0000      -0.414124       -11.2689
  36   1.0000      -0.409161       -11.1338
  37   1.0000      -0.399876       -10.8812
  38   1.0000      -0.392604       -10.6833
  39   1.0000      -0.378508       -10.2997
  40   1.0000      -0.374992       -10.2041
  41   1.0000      -0.304177        -8.2771
  42   1.0000      -0.299011        -8.1365
  43   1.0000      -0.283394        -7.7116
  44   0.0000      -0.202091        -5.4992
  45   0.0000      -0.043065        -1.1719
  46   0.0000      -0.034863        -0.9487
  47   0.0000      -0.026520        -0.7217
  48   0.0000      -0.009555        -0.2600

MULLIKEN ATOMIC CHARGES AND SPIN POPULATIONS
--------------------------------------------
   0 C :   -0.506751    0.102017
   1 C :   -0.738933   -0.058681
   2 C :   -0.598320    0.208969
   3 C :   -0.482329   -0.041103
   4 C :   -1.052358    0.075831
   5 C :    1.239498    0.098920
   6 O :   -0.683666    0.240410
   7 C :    1.247742    0.098074
   8 C :   -1.059811    0.075568
   9 C :   -0.487723   -0.041254
  10 C :   -0.587284    0.208849
  11 C :   -0.746836   -0.058551
  12 C :   -0.508698    0.101914
  13 H :    0.691421   -0.005734
  14 H :    0.535010    0.003643
  15 H :    0.651567    0.004890
  16 H :    0.521308    0.001159
  17 H :    0.586256   -0.009057
  18 H :    0.589143   -0.009363
  19 H :    0.520895    0.001038
  20 H :    0.639370    0.004857
  21 H :    0.538766    0.003780
  22 H :    0.691729   -0.006176
Sum of atomic charges         :    1.0000000

LOEWDIN ATOMIC CHARGES AND SPIN POPULATIONS
-------------------------------------------
   0 C :    0.245385    0.067394
   1 C :    0.246781    0.023144
   2 C :    0.253228    0.104775
   3 C :    0.238885    0.025333
   4 C :    0.255792    0.057803
   5 C :   -0.325109    0.085846
   6 O :    0.696281    0.193786
   7 C :   -0.325007    0.085711
   8 C :    0.255790    0.057754
   9 C :    0.238864    0.025283
  10 C :    0.253158    0.104629
  11 C :    0.246805    0.023100
  12 C :    0.245252    0.067358
  13 H :   -0.158398    0.011972
  14 H :   -0.152294   -0.004131
  15 H :   -0.150266    0.025188
  16 H :   -0.154357   -0.003432
  17 H :   -0.147865    0.009428
  18 H :   -0.147855    0.009431
  19 H :   -0.154334   -0.003430
  20 H :   -0.150248    0.025221
  21 H :   -0.152280   -0.004130
  22 H :   -0.158208    0.011967

  Mayer bond orders larger than 0.100000
B(  0-C ,  1-C ) :   1.3560 B(  0-C ,  4-C ) :   0.1944 B(  0-C ,  5-C ) :   0.8352
B(  0-C , 12-C ) :   0.2026 B(  0-C , 22-H ) :   0.2874 B(  1-C ,  2-C ) :   1.4018
B(  1-C ,  5-C ) :  -0.3134 B(  1-C , 16-H ) :   0.1058 B(  1-C , 21-H ) :   0.5877
B(  2-C ,  3-C ) :   1.2950 B(  2-C ,  4-C ) :   0.3254 B(  2-C , 20-H ) :   0.3642
B(  3-C ,  4-C ) :   1.5069 B(  3-C ,  5-C ) :  -0.3788 B(  3-C , 16-H ) :  -0.1365
B(  3-C , 19-H ) :   0.6036 B(  4-C ,  5-C ) :   0.4676 B(  4-C ,  6-O ) :   0.2602
B(  4-C , 18-H ) :   0.2226 B(  5-C ,  6-O ) :   0.7379 B(  6-O ,  7-C ) :   0.7466
B(  6-O ,  8-C ) :   0.2501 B(  7-C ,  8-C ) :   0.4611 B(  7-C ,  9-C ) :  -0.3790
B(  7-C , 11-C ) :  -0.3162 B(  7-C , 12-C ) :   0.8394 B(  8-C ,  9-C ) :   1.5237
B(  8-C , 10-C ) :   0.3377 B(  8-C , 12-C ) :   0.1838 B(  8-C , 17-H ) :   0.2270
B(  9-C , 10-C ) :   1.2874 B(  9-C , 16-H ) :   0.6062 B( 10-C , 11-C ) :   1.4102
B( 10-C , 12-C ) :   0.1032 B( 10-C , 15-H ) :   0.3434 B( 11-C , 12-C ) :   1.3628
B( 11-C , 14-H ) :   0.5909 B( 12-C , 13-H ) :   0.2888 B( 12-C , 22-H ) :  -0.1011

Dispersion correction           -0.023697101
FINAL SINGLE POINT ENERGY      -537.881131061470

DIPOLE MOMENT
-------------

Method             : SCF
Type of density    : Electron Density
Multiplicity       :   2
Irrep              :   0
Energy             :  -537.8574339607700949 Eh
Relativity type    :
Basis              : AO
                                X                 Y                 Z
Electronic contribution:      0.000927260       2.200493121       0.001439654
Nuclear contribution   :      0.000094713      -2.682273649       0.000868768
                        -----------------------------------------
Total Dipole Moment    :      0.001021973      -0.481780527       0.002308422
                        -----------------------------------------
Magnitude (a.u.)       :      0.481787142
Magnitude (Debye)      :      1.224605593

VIBRATIONAL FREQUENCIES
-----------------------

Scaling factor for frequencies =  1.000000000  (already applied!)

     0:       0.00 cm**-1
     1:       0.00 cm**-1
     2:       0.00 cm**-1
     3:       0.00 cm**-1
     4:       0.00 cm**-1
     5:       0.00 cm**-1
     6:     -74.46 cm**-1 ***imaginary mode***
     7:     -38.25 cm**-1 ***imaginary mode***
     8:      74.14 cm**-1
     9:     189.39 cm**-1
    10:     218.97 cm**-1
    11:     313.51 cm**-1
    12:     345.20 cm**-1
    13:     383.35 cm**-1
    14:     405.26 cm**-1
    15:     453.28 cm**-1
    16:     466.52 cm**-1
    17:     542.92 cm**-1
    18:     579.07 cm**-1
    19:     593.16 cm**-1
    20:     634.69 cm**-1
    21:     658.74 cm**-1
    22:     661.55 cm**-1
    23:     771.59 cm**-1
    24:     772.23 cm**-1
    25:     805.08 cm**-1
    26:     808.64 cm**-1
    27:     822.47 cm**-1
    28:     889.30 cm**-1
    29:     937.53 cm**-1
    30:     949.03 cm**-1
    31:     964.97 cm**-1
    32:     999.21 cm**-1
    33:    1000.79 cm**-1
    34:    1010.18 cm**-1
    35:    1018.69 cm**-1
    36:    1019.46 cm**-1
    37:    1021.83 cm**-1
    38:    1030.69 cm**-1
    39:    1049.76 cm**-1
    40:    1101.50 cm**-1
    41:    1107.07 cm**-1
    42:    1153.60 cm**-1
    43:    1154.67 cm**-1
    44:    1171.58 cm**-1
    45:    1206.06 cm**-1
    46:    1262.95 cm**-1
    47:    1317.74 cm**-1
    48:    1333.50 cm**-1
    49:    1389.07 cm**-1
    50:    1391.16 cm**-1
    51:    1460.67 cm**-1
    52:    1481.44 cm**-1
    53:    1493.73 cm**-1
    54:    1499.49 cm**-1
    55:    1570.37 cm**-1
    56:    1576.92 cm**-1
    57:    1590.35 cm**-1
    58:    1662.03 cm**-1
    59:    3209.05 cm**-1
    60:    3209.12 cm**-1
    61:    3217.93 cm**-1
    62:    3218.33 cm**-1
    63:    3221.84 cm**-1
    64:    3223.37 cm**-1
    65:    3229.11 cm**-1
    66:    3230.75 cm**-1
    67:    3231.90 cm**-1
    68:    3233.88 cm**-1

IR SPECTRUM
-----------

 Mode   freq       eps      Int      T**2         TX        TY        TZ
       cm**-1   L/(mol*cm) km/mol    a.u.
----------------------------------------------------------------------------
  8:     74.14   0.000041    0.21  0.000173  (-0.001317 -0.013078 -0.000017)
  9:    189.39   0.177084  894.91  0.291792  (-0.539839 -0.000095 -0.019148)
 10:    218.97   0.000003    0.02  0.000005  (-0.001859 -0.001029 -0.000041)
 11:    313.51   0.000117    0.59  0.000116  (-0.000622  0.010755  0.000060)
 12:    345.20   0.123711  625.18  0.111836  (-0.333536  0.000008 -0.024275)
 13:    383.35   0.057628  291.23  0.046912  ( 0.216575 -0.000024  0.002604)
 14:    405.26   0.000062    0.31  0.000048  ( 0.002651 -0.006358  0.000244)
 15:    453.28   0.452089  2284.67  0.311242  (-0.557881  0.000415  0.003100)
 16:    466.52   0.001409    7.12  0.000943  ( 0.009997  0.029031  0.000158)
 17:    542.92   0.151491  765.58  0.087075  (-0.293342  0.000034 -0.032015)
 18:    579.07   0.000087    0.44  0.000047  (-0.000101 -0.006829 -0.000065)
 19:    593.16   0.024631  124.47  0.012958  (-0.112306  0.000015 -0.018590)
 20:    634.69   0.000530    2.68  0.000261  ( 0.000277 -0.016132 -0.000511)
 21:    658.74   0.024008  121.33  0.011373  ( 0.030856 -0.002577 -0.102051)
 22:    661.55   0.005413   27.35  0.002553  ( 0.001107  0.050241 -0.005286)
 23:    771.59   0.012792   64.65  0.005174  (-0.064448 -0.022192 -0.022969)
 24:    772.23   0.238580  1205.69  0.096412  (-0.292768  0.004857 -0.103321)
 25:    805.08   0.104563  528.42  0.040531  (-0.200531 -0.001228  0.017797)
 26:    808.64   0.003872   19.57  0.001494  ( 0.007927 -0.037830 -0.000578)
 27:    822.47   0.001997   10.09  0.000758  (-0.001088 -0.027504  0.000409)
 28:    889.30   0.332433  1679.98  0.116653  ( 0.341509 -0.000008  0.004981)
 29:    937.53   0.269699  1362.95  0.089771  ( 0.297903  0.000186  0.032008)
 30:    949.03   0.001142    5.77  0.000375  ( 0.003805 -0.018996  0.000217)
 31:    964.97   1.213778  6133.94  0.392527  ( 0.626519  0.000034  0.000683)
 32:    999.21   0.000057    0.29  0.000018  ( 0.003965  0.000211  0.001465)
 33:   1000.79   0.000011    0.06  0.000003  (-0.000958  0.001574 -0.000264)
 34:   1010.18   0.000013    0.07  0.000004  (-0.001066  0.001705  0.000088)
 35:   1018.69   0.012907   65.23  0.003954  ( 0.062779 -0.003163 -0.001632)
 36:   1019.46   0.020241  102.29  0.006196  (-0.078625 -0.003610  0.000962)
 37:   1021.83   0.076182  384.99  0.023266  (-0.152483  0.000553 -0.003792)
 38:   1030.69   0.000014    0.07  0.000004  ( 0.001383 -0.001558  0.000063)
 39:   1049.76   0.653652  3303.29  0.194312  (-0.440726  0.000057 -0.008525)
 40:   1101.50   0.002764   13.97  0.000783  (-0.011328  0.000973 -0.025569)
 41:   1107.07   0.006730   34.01  0.001897  ( 0.001697  0.043518  0.000642)
 42:   1153.60   0.000272    1.37  0.000074  (-0.000118 -0.008577  0.000151)
 43:   1154.67   0.000422    2.13  0.000114  (-0.009336  0.000208  0.005180)
 44:   1171.58   0.000117    0.59  0.000031  (-0.000779  0.005520 -0.000071)
 45:   1206.06   0.199493  1008.16  0.051618  (-0.227165  0.000109 -0.003787)
 46:   1262.95   0.000928    4.69  0.000229  ( 0.000798  0.015121  0.000059)
 47:   1317.74   0.000970    4.90  0.000230  (-0.014860 -0.000145  0.002990)
 48:   1333.50   0.000547    2.76  0.000128  (-0.000058  0.011311 -0.000026)
 49:   1389.07   0.029455  148.85  0.006617  ( 0.079253 -0.000420 -0.018332)
 50:   1391.16   0.008161   41.24  0.001831  (-0.000895 -0.042775  0.000214)
 51:   1460.67   0.082474  416.79  0.017620  (-0.132738 -0.000120  0.000869)
 52:   1481.44   0.001783    9.01  0.000376  ( 0.008119  0.000044 -0.017598)
 53:   1493.73   0.000368    1.86  0.000077  (-0.000043  0.008768 -0.000031)
 54:   1499.49   0.011383   57.52  0.002369  (-0.000544  0.048668  0.000050)
 55:   1570.37   0.109285  552.28  0.021717  (-0.147303 -0.000200  0.004317)
 56:   1576.92   0.001484    7.50  0.000294  (-0.003161  0.016844  0.000070)
 57:   1590.35   0.521565  2635.77  0.102343  ( 0.319725  0.000029  0.010916)
 58:   1662.03   0.000084    0.43  0.000016  ( 0.000006 -0.003982  0.000021)
 59:   3209.05   0.000399    2.02  0.000039  (-0.006091  0.001303  0.000114)
 60:   3209.12   0.000969    4.90  0.000094  ( 0.009667  0.000885 -0.000094)
 61:   3217.93   0.000962    4.86  0.000093  (-0.007403 -0.000877  0.006141)
 62:   3218.33   0.001097    5.54  0.000106  (-0.000899  0.010261  0.000516)
 63:   3221.84   0.000429    2.17  0.000042  (-0.006388  0.000031  0.000874)
 64:   3223.37   0.000630    3.18  0.000061  (-0.000096  0.007806 -0.000074)
 65:   3229.11   0.004001   20.22  0.000387  (-0.019550 -0.000162  0.002106)
 66:   3230.75   0.000632    3.19  0.000061  ( 0.000860  0.007764 -0.000111)
 67:   3231.90   0.040254  203.43  0.003887  (-0.062324  0.000112 -0.001612)
 68:   3233.88   0.000080    0.40  0.000008  (-0.000602  0.002705 -0.000098)

--------------------------
THERMOCHEMISTRY AT 298.15K
--------------------------

Temperature         ...   298.15 K
Pressure            ...     1.00 atm
Total Mass          ...   170.21 AMU
Quasi RRHO          ...     True
Cut-Off Frequency   ...     1.00 cm^-1

Throughout the following assumptions are being made:
  (1) The electronic state is orbitally nondegenerate
      but the spin degeneracy is treated
  (2) There are no thermally accessible electronically excited states
  (3) Hindered rotations indicated by low frequency modes are not
      treated as such but are treated as vibrations and this may
      cause some error
  (4) All equations used are the standard statistical mechanics
      equations for an ideal gas
  (5) All vibrations are strictly harmonic

freq.      74.14  E(vib)   ...       0.49
freq.     189.39  E(vib)   ...       0.36
freq.     218.97  E(vib)   ...       0.33
freq.     313.51  E(vib)   ...       0.25
freq.     345.20  E(vib)   ...       0.23
freq.     383.35  E(vib)   ...       0.20
freq.     405.26  E(vib)   ...       0.19
freq.     453.28  E(vib)   ...       0.16
freq.     466.52  E(vib)   ...       0.16
freq.     542.92  E(vib)   ...       0.12
freq.     579.07  E(vib)   ...       0.11
freq.     593.16  E(vib)   ...       0.10
freq.     634.69  E(vib)   ...       0.09
freq.     658.74  E(vib)   ...       0.08
freq.     661.55  E(vib)   ...       0.08
freq.     771.59  E(vib)   ...       0.05
freq.     772.23  E(vib)   ...       0.05
freq.     805.08  E(vib)   ...       0.05
freq.     808.64  E(vib)   ...       0.05
freq.     822.47  E(vib)   ...       0.05
freq.     889.30  E(vib)   ...       0.04
freq.     937.53  E(vib)   ...       0.03
freq.     949.03  E(vib)   ...       0.03
freq.     964.97  E(vib)   ...       0.03
freq.     999.21  E(vib)   ...       0.02
freq.    1000.79  E(vib)   ...       0.02
freq.    1010.18  E(vib)   ...       0.02
freq.    1018.69  E(vib)   ...       0.02
freq.    1019.46  E(vib)   ...       0.02
freq.    1021.83  E(vib)   ...       0.02
freq.    1030.69  E(vib)   ...       0.02
freq.    1049.76  E(vib)   ...       0.02
freq.    1101.50  E(vib)   ...       0.02
freq.    1107.07  E(vib)   ...       0.02
freq.    1153.60  E(vib)   ...       0.01
freq.    1154.67  E(vib)   ...       0.01
freq.    1171.58  E(vib)   ...       0.01
freq.    1206.06  E(vib)   ...       0.01
freq.    1262.95  E(vib)   ...       0.01
freq.    1317.74  E(vib)   ...       0.01
freq.    1333.50  E(vib)   ...       0.01
freq.    1389.07  E(vib)   ...       0.00
freq.    1391.16  E(vib)   ...       0.00
freq.    1460.67  E(vib)   ...       0.00
freq.    1481.44  E(vib)   ...       0.00
freq.    1493.73  E(vib)   ...       0.00
freq.    1499.49  E(vib)   ...       0.00
freq.    1570.37  E(vib)   ...       0.00
freq.    1576.92  E(vib)   ...       0.00
freq.    1590.35  E(vib)   ...       0.00
freq.    1662.03  E(vib)   ...       0.00
freq.    3209.05  E(vib)   ...       0.00
freq.    3209.12  E(vib)   ...       0.00
freq.    3217.93  E(vib)   ...       0.00
freq.    3218.33  E(vib)   ...       0.00
freq.    3221.84  E(vib)   ...       0.00
freq.    3223.37  E(vib)   ...       0.00
freq.    3229.11  E(vib)   ...       0.00
freq.    3230.75  E(vib)   ...       0.00
freq.    3231.90  E(vib)   ...       0.00
freq.    3233.88  E(vib)   ...       0.00

------------
INNER ENERGY
------------

The inner energy is: U= E(el) + E(ZPE) + E(vib) + E(rot) + E(trans)
    E(el)   - is the total energy from the electronic structure calculation
              = E(kin-el) + E(nuc-el) + E(el-el) + E(nuc-nuc)
    E(ZPE)  - the the zero temperature vibrational energy from the frequency calculation
    E(vib)  - the the finite temperature correction to E(ZPE) due to population
              of excited vibrational states
    E(rot)  - is the rotational thermal energy
    E(trans)- is the translational thermal energy

Summary of contributions to the inner energy U:
Electronic energy                ...   -537.88113106 Eh
Zero point energy                ...      0.18348456 Eh     115.14 kcal/mol
Thermal vibrational correction   ...      0.00580810 Eh       3.64 kcal/mol
Thermal rotational correction    ...      0.00141627 Eh       0.89 kcal/mol
Thermal translational correction ...      0.00141627 Eh       0.89 kcal/mol
-----------------------------------------------------------------------
Total thermal energy                   -537.68900586 Eh

Summary of corrections to the electronic energy:
(perhaps to be used in another calculation)
Total thermal correction                  0.00864065 Eh       5.42 kcal/mol
Non-thermal (ZPE) correction              0.18348456 Eh     115.14 kcal/mol
-----------------------------------------------------------------------
Total correction                          0.19212520 Eh     120.56 kcal/mol

--------
ENTHALPY
--------

The enthalpy is H = U + kB*T
                kB is Boltzmann's constant
Total thermal energy              ...   -537.68900586 Eh
Thermal Enthalpy correction       ...      0.00094421 Eh       0.59 kcal/mol
-----------------------------------------------------------------------
Total Enthalpy                    ...   -537.68806165 Eh

Note: Only C1 symmetry has been detected, increase convergence thresholds
      if your molecule has a higher symmetry. Symmetry factor of 1.0 is
      used for the rotational entropy correction.

Note: Rotational entropy computed according to Herzberg
Infrared and Raman Spectra, Chapter V,1, Van Nostrand Reinhold, 1945
Point Group:  C1, Symmetry Number:   1
Rotational constants in cm-1:     0.082795     0.014866     0.013331

Vibrational entropy computed according to the QRRHO of S. Grimme
Chem.Eur.J. 2012 18 9955 using a reference frequency of 100.0 cm-1

-------
ENTROPY
-------

The entropy contributions are T*S = T*(S(el)+S(vib)+S(rot)+S(trans))
     S(el)   - electronic entropy
     S(vib)  - vibrational entropy
     S(rot)  - rotational entropy
     S(trans)- translational entropy
The entropies will be listed as multiplied by the temperature to get
units of energy

Electronic entropy                ...      0.00065446 Eh      0.41 kcal/mol
Vibrational entropy               ...      0.00901828 Eh      5.66 kcal/mol
Rotational entropy                ...      0.01471219 Eh      9.23 kcal/mol
Translational entropy             ...      0.01962451 Eh     12.31 kcal/mol
-----------------------------------------------------------------------
Final entropy term                ...      0.04400944 Eh     27.62 kcal/mol

In case the symmetry of your molecule has not been determined correctly
or in case you have a reason to use a different symmetry number we print
out the resulting rotational entropy values for sn=1,12:

                             ****ORCA TERMINATED NORMALLY****
TOTAL RUN TIME: 0 days 1 hours 45 minutes 46 seconds 321 msec
