                         Program Version 6.0.0  -   RELEASE  -
|  1> !r2SCAN aug-cc-pVTZ d3 TightSCF SlowConv RIJCOSX defgrid2
|  2>
|  3> %pal
|  4> nprocs 4
|  5> end
|  6>
|  7> %scf
|  8> MaxIter 1500
|  9> end
| 10>
| 11> %maxcore 3000
| 12>
| 13> !CPCM
| 14> %cpcm smd true
| 15> SMDsolvent "MeCN"
| 16> surfacetype gepol_ses
| 17> rsolv 2.19
| 18> end
| 19>
| 20> * xyz 0 1
| 21> C          -1.38053685940747     -1.21804540995532     -0.00011060626091
| 22> C           0.00880673788646     -1.21761505772678     -0.00009043075416
| 23> C           0.68407451418940     -0.00000826905018      0.00002079320919
| 24> C           0.00881895322689      1.21760888927779      0.00010917128456
| 25> C          -1.38052397185078      1.21805873995267      0.00009090964868
| 26> C          -2.05580079114724      0.00001020724702     -0.00001816987555
| 27> F          -3.38048726341071      0.00001804396249     -0.00003514545168
| 28> H          -1.95216629027619      2.14893818448022      0.00016183253789
| 29> H           0.58216467537740      2.14580924232628      0.00018829183514
| 30> N           2.15012174350491     -0.00002110651836      0.00004214105770
| 31> O           2.70660121926706     -1.07534719974692     -0.00006677256489
| 32> O           2.70659645313172      1.07532442371150     -0.00002414626605
| 33> H           0.58214126111558     -2.14581854067801     -0.00015767613729
| 34> H          -1.95219098160703     -2.14891564728239     -0.00019689226262
| 35> *
| 36>
| 37>                          ****END OF INPUT****

CARTESIAN COORDINATES (ANGSTROEM)
---------------------------------
  C     -1.380537   -1.218045   -0.000111
  C      0.008807   -1.217615   -0.000090
  C      0.684075   -0.000008    0.000021
  C      0.008819    1.217609    0.000109
  C     -1.380524    1.218059    0.000091
  C     -2.055801    0.000010   -0.000018
  F     -3.380487    0.000018   -0.000035
  H     -1.952166    2.148938    0.000162
  H      0.582165    2.145809    0.000188
  N      2.150122   -0.000021    0.000042
  O      2.706601   -1.075347   -0.000067
  O      2.706596    1.075324   -0.000024
  H      0.582141   -2.145819   -0.000158
  H     -1.952191   -2.148916   -0.000197

 Total Charge           Charge          ....    0
 Multiplicity           Mult            ....    1
 Number of Electrons    NEL             ....   72
 Basis Dimension        Dim             ....  552

ORBITAL ENERGIES
----------------

  NO   OCC          E(Eh)            E(eV)
   0   2.0000     -24.527000      -667.4136
   1   2.0000     -18.993681      -516.8443
   2   2.0000     -18.993665      -516.8439
   3   2.0000     -14.403358      -391.9353
   4   2.0000     -10.146489      -276.1000
   5   2.0000     -10.100144      -274.8389
   6   2.0000     -10.070843      -274.0416
   7   2.0000     -10.070839      -274.0415
   8   2.0000     -10.062823      -273.8233
   9   2.0000     -10.062815      -273.8231
  10   2.0000      -1.218270       -33.1508
  11   2.0000      -1.211950       -32.9788
  12   2.0000      -1.036850       -28.2141
  13   2.0000      -0.859744       -23.3948
  14   2.0000      -0.775593       -21.1050
  15   2.0000      -0.744314       -20.2538
  16   2.0000      -0.670289       -18.2395
  17   2.0000      -0.612638       -16.6707
  18   2.0000      -0.575020       -15.6471
  19   2.0000      -0.537049       -14.6138
  20   2.0000      -0.524382       -14.2691
  21   2.0000      -0.517679       -14.0868
  22   2.0000      -0.498589       -13.5673
  23   2.0000      -0.471081       -12.8188
  24   2.0000      -0.455925       -12.4063
  25   2.0000      -0.430883       -11.7249
  26   2.0000      -0.413635       -11.2556
  27   2.0000      -0.401400       -10.9227
  28   2.0000      -0.384187       -10.4543
  29   2.0000      -0.358663        -9.7597
  30   2.0000      -0.328525        -8.9396
  31   2.0000      -0.302560        -8.2331
  32   2.0000      -0.286083        -7.7847
  33   2.0000      -0.269082        -7.3221
  34   2.0000      -0.263190        -7.1618
  35   2.0000      -0.253501        -6.8981
  36   0.0000      -0.119937        -3.2636
  37   0.0000      -0.059299        -1.6136
  38   0.0000      -0.025151        -0.6844
  39   0.0000       0.007371         0.2006
  40   0.0000       0.021943         0.5971

MULLIKEN ATOMIC CHARGES
-----------------------
   0 C :   -0.602981
   1 C :   -0.369015
   2 C :    0.336997
   3 C :   -0.368998
   4 C :   -0.602981
   5 C :    0.680667
   6 F :   -0.456039
   7 H :    0.355039
   8 H :    0.598826
   9 N :    0.868124
  10 O :   -0.696751
  11 O :   -0.696754
  12 H :    0.598832
  13 H :    0.355034
Sum of atomic charges:   -0.0000000

LOEWDIN ATOMIC CHARGES
----------------------
   0 C :    0.214679
   1 C :    0.199757
   2 C :   -0.243114
   3 C :    0.199755
   4 C :    0.214678
   5 C :   -0.533636
   6 F :    0.569599
   7 H :   -0.160828
   8 H :   -0.184368
   9 N :   -0.761147
  10 O :    0.414919
  11 O :    0.414903
  12 H :   -0.184367
  13 H :   -0.160830

  Mayer bond orders larger than 0.100000
B(  0-C ,  1-C ) :   1.2149 B(  0-C ,  2-C ) :  -0.3897 B(  0-C ,  4-C ) :   0.1630
B(  0-C ,  5-C ) :   1.2911 B(  0-C ,  6-F ) :   0.1917 B(  0-C , 13-H ) :   0.6720
B(  1-C ,  2-C ) :   0.8839 B(  1-C ,  3-C ) :   0.1345 B(  1-C ,  9-N ) :  -0.2305
B(  1-C , 12-H ) :   0.2546 B(  2-C ,  3-C ) :   0.8839 B(  2-C ,  4-C ) :  -0.3897
B(  2-C ,  9-N ) :   1.1360 B(  2-C , 10-O ) :   0.3820 B(  2-C , 11-O ) :   0.3821
B(  3-C ,  4-C ) :   1.2149 B(  3-C ,  8-H ) :   0.2546 B(  3-C ,  9-N ) :  -0.2305
B(  4-C ,  5-C ) :   1.2911 B(  4-C ,  6-F ) :   0.1917 B(  4-C ,  7-H ) :   0.6720
B(  5-C ,  6-F ) :   0.1808 B(  6-F ,  7-H ) :   0.1415 B(  6-F , 13-H ) :   0.1415
B(  8-H , 11-O ) :  -0.1039 B(  9-N , 10-O ) :   0.9226 B(  9-N , 11-O ) :   0.9227
B( 10-O , 11-O ) :   0.1832 B( 10-O , 12-H ) :  -0.1039

Dispersion correction           -0.004231636
FINAL SINGLE POINT ENERGY      -535.949059725308

DIPOLE MOMENT
-------------

Method             : SCF
Type of density    : Electron Density
Multiplicity       :   1
Irrep              :   0
Energy             :  -535.9448280896519918 Eh
Relativity type    :
Basis              : AO
                                X                 Y                 Z
Electronic contribution:     -2.349484232      -0.000049553       0.000134403
Nuclear contribution   :      0.647078379      -0.000000805       0.000058033
                        -----------------------------------------
Total Dipole Moment    :     -1.702405853      -0.000050358       0.000192436
                        -----------------------------------------
Magnitude (a.u.)       :      1.702405865
Magnitude (Debye)      :      4.327171823

Rotational constants in cm-1:             0.132896             0.026895             0.022368
Rotational constants in MHz :          3984.136470           806.287592           670.579423

                             ****ORCA TERMINATED NORMALLY****
TOTAL RUN TIME: 0 days 0 hours 1 minutes 58 seconds 115 msec
