                         Program Version 6.0.0  -   RELEASE  -
|  1> !TPSSh aug-cc-pVTZ d3 TightSCF SlowConv RIJCOSX defgrid2
|  2>
|  3> %pal
|  4> nprocs 4
|  5> end
|  6>
|  7> %scf
|  8> MaxIter 1500
|  9> end
| 10>
| 11> %maxcore 3000
| 12>
| 13> !CPCM
| 14> %cpcm smd true
| 15> SMDsolvent "MeCN"
| 16> surfacetype gepol_ses
| 17> rsolv 2.19
| 18> end
| 19>
| 20> * xyz 0 1
| 21> C           0.72846885788564     -1.15784028584735      0.21465716565288
| 22> C          -0.72838872754133     -1.15789194996047     -0.21471105742009
| 23> H          -1.26566912672840     -2.02298179548787      0.20783755053784
| 24> H          -0.78257562442601     -1.21600334985238     -1.32347491994052
| 25> O          -1.37931475672951     -0.00004060434601      0.24203966695526
| 26> C          -0.72847338747200      1.15785118517467     -0.21468108863207
| 27> C           0.72838447904102      1.15790308826059      0.21468626317123
| 28> H           1.26566574586215      2.02299188926254     -0.20786185075861
| 29> H           0.78257095760651      1.21601527999336      1.32345042944719
| 30> O           1.37931078309740      0.00005102545162     -0.24206320741713
| 31> H          -1.26580107006212      2.02291673363735      0.20786353677761
| 32> H          -0.78266679653089      1.21602011387656     -1.32344454690673
| 33> H           1.26579800052310     -2.02290574756220     -0.20788628184953
| 34> H           0.78266216547443     -1.21600808260041      1.32342094038269
| 35> *
| 36>
| 37>                          ****END OF INPUT****

CARTESIAN COORDINATES (ANGSTROEM)
---------------------------------
  C      0.728469   -1.157840    0.214657
  C     -0.728389   -1.157892   -0.214711
  H     -1.265669   -2.022982    0.207838
  H     -0.782576   -1.216003   -1.323475
  O     -1.379315   -0.000041    0.242040
  C     -0.728473    1.157851   -0.214681
  C      0.728384    1.157903    0.214686
  H      1.265666    2.022992   -0.207862
  H      0.782571    1.216015    1.323450
  O      1.379311    0.000051   -0.242063
  H     -1.265801    2.022917    0.207864
  H     -0.782667    1.216020   -1.323445
  H      1.265798   -2.022906   -0.207886
  H      0.782662   -1.216008    1.323421

 Total Charge           Charge          ....    0
 Multiplicity           Mult            ....    1
 Number of Electrons    NEL             ....   48
 Basis Dimension        Dim             ....  460

ORBITAL ENERGIES
----------------

  NO   OCC          E(Eh)            E(eV)
   0   2.0000     -19.056124      -518.5435
   1   2.0000     -19.056124      -518.5435
   2   2.0000     -10.151581      -276.2385
   3   2.0000     -10.151580      -276.2385
   4   2.0000     -10.151392      -276.2334
   5   2.0000     -10.151387      -276.2333
   6   2.0000      -1.038774       -28.2665
   7   2.0000      -1.001615       -27.2553
   8   2.0000      -0.752435       -20.4748
   9   2.0000      -0.667169       -18.1546
  10   2.0000      -0.640616       -17.4320
  11   2.0000      -0.550868       -14.9899
  12   2.0000      -0.486263       -13.2319
  13   2.0000      -0.461340       -12.5537
  14   2.0000      -0.451954       -12.2983
  15   2.0000      -0.449881       -12.2419
  16   2.0000      -0.424324       -11.5464
  17   2.0000      -0.371542       -10.1102
  18   2.0000      -0.350361        -9.5338
  19   2.0000      -0.345716        -9.4074
  20   2.0000      -0.335103        -9.1186
  21   2.0000      -0.280528        -7.6335
  22   2.0000      -0.264588        -7.1998
  23   2.0000      -0.217777        -5.9260
  24   0.0000       0.000181         0.0049
  25   0.0000       0.012319         0.3352
  26   0.0000       0.014636         0.3983
  27   0.0000       0.018569         0.5053
  28   0.0000       0.037416         1.0181

MULLIKEN ATOMIC CHARGES
-----------------------
   0 C :    0.130334
   1 C :    0.130317
   2 H :    0.051982
   3 H :    0.120426
   4 O :   -0.605403
   5 C :    0.130275
   6 C :    0.130282
   7 H :    0.051982
   8 H :    0.120433
   9 O :   -0.605376
  10 H :    0.051977
  11 H :    0.120426
  12 H :    0.051953
  13 H :    0.120391
Sum of atomic charges:   -0.0000000

LOEWDIN ATOMIC CHARGES
----------------------
   0 C :    0.001558
   1 C :    0.001582
   2 H :   -0.147332
   3 H :   -0.145457
   4 O :    0.582435
   5 C :    0.001559
   6 C :    0.001582
   7 H :   -0.147333
   8 H :   -0.145457
   9 O :    0.582435
  10 H :   -0.147331
  11 H :   -0.145454
  12 H :   -0.147331
  13 H :   -0.145454

  Mayer bond orders larger than 0.100000
B(  0-C ,  1-C ) :   1.0848 B(  0-C ,  6-C ) :   0.1333 B(  0-C ,  9-O ) :   0.8465
B(  0-C , 12-H ) :   1.0071 B(  0-C , 13-H ) :   0.9337 B(  1-C ,  2-H ) :   1.0070
B(  1-C ,  3-H ) :   0.9337 B(  1-C ,  4-O ) :   0.8466 B(  1-C ,  5-C ) :   0.1333
B(  4-O ,  5-C ) :   0.8466 B(  5-C ,  6-C ) :   1.0848 B(  5-C , 10-H ) :   1.0070
B(  5-C , 11-H ) :   0.9338 B(  6-C ,  7-H ) :   1.0070 B(  6-C ,  8-H ) :   0.9338
B(  6-C ,  9-O ) :   0.8466

Dispersion correction           -0.011924127
FINAL SINGLE POINT ENERGY      -307.809460367190

DIPOLE MOMENT
-------------

Method             : SCF
Type of density    : Electron Density
Multiplicity       :   1
Irrep              :   0
Energy             :  -307.7975362399110963 Eh
Relativity type    :
Basis              : AO
                                X                 Y                 Z
Electronic contribution:     -0.000001522      -0.000000344      -0.000001843
Nuclear contribution   :      0.000000978       0.000001632       0.000000845
                        -----------------------------------------
Total Dipole Moment    :     -0.000000544       0.000001288      -0.000000997
                        -----------------------------------------
Magnitude (a.u.)       :      0.000001717
Magnitude (Debye)      :      0.000004365

Rotational constants in cm-1:             0.171669             0.158105             0.092537
Rotational constants in MHz :          5146.503570          4739.855940          2774.198272

                             ****ORCA TERMINATED NORMALLY****
TOTAL RUN TIME: 0 days 0 hours 1 minutes 58 seconds 182 msec
