                         Program Version 6.0.0  -   RELEASE  -
|  1> !PBE0 freq def2-SV(p) d3 TightSCF SlowConv RIJCOSX defgrid2
|  2>
|  3> %pal
|  4> nprocs 12
|  5> end
|  6>
|  7> %scf
|  8> MaxIter 1500
|  9> end
| 10>
| 11> %maxcore 5000
| 12>
| 13> !CPCM
| 14> %cpcm smd true
| 15> SMDsolvent "MeCN"
| 16> surfacetype gepol_ses
| 17> rsolv 2.19
| 18> end
| 19>
| 20> * xyz -1 2
| 21> C          -1.16585949734636     -1.25178436534235     -0.00055858124930
| 22> C          -2.51449062147373     -0.94932218286799     -0.00068061134910
| 23> C          -2.96586045712802      0.38692689504620     -0.00015034429226
| 24> C          -2.00028073333843      1.41456014462283      0.00042293936431
| 25> C          -0.64491876058979      1.13658839365513      0.00056659786319
| 26> C          -0.16557022572730     -0.21554508287598      0.00029087982341
| 27> C           1.19057685365622     -0.62254527496562      0.00091973759371
| 28> O           1.69010627828184     -1.73586780248741     -0.00006623410414
| 29> Cl          2.41055841639759      0.82810242512851     -0.00030927282875
| 30> H           0.08197725604939      1.95223013085963      0.00117356416967
| 31> H          -2.32569980740533      2.46165586443289      0.00105938952267
| 32> H          -4.03483677246866      0.61944048774339     -0.00006819472875
| 33> H          -3.24433059888913     -1.76790769871384     -0.00116131317282
| 34> H          -0.83204863001828     -2.29352193423541     -0.00089305661182
| 35> *
| 36>
| 37>                          ****END OF INPUT****

CARTESIAN COORDINATES (ANGSTROEM)
---------------------------------
  C     -1.165859   -1.251784   -0.000559
  C     -2.514491   -0.949322   -0.000681
  C     -2.965860    0.386927   -0.000150
  C     -2.000281    1.414560    0.000423
  C     -0.644919    1.136588    0.000567
  C     -0.165570   -0.215545    0.000291
  C      1.190577   -0.622545    0.000920
  O      1.690106   -1.735868   -0.000066
  Cl     2.410558    0.828102   -0.000309
  H      0.081977    1.952230    0.001174
  H     -2.325700    2.461656    0.001059
  H     -4.034837    0.619440   -0.000068
  H     -3.244331   -1.767908   -0.001161
  H     -0.832049   -2.293522   -0.000893

 Total Charge           Charge          ....   -1
 Multiplicity           Mult            ....    2
 Number of Electrons    NEL             ....   73
 Basis Dimension        Dim             ....  140

ORBITAL ENERGIES
----------------
                 SPIN UP ORBITALS
  NO   OCC          E(Eh)            E(eV)
   0   1.0000    -101.623534     -2765.3169
   1   1.0000     -19.162044      -521.4257
   2   1.0000     -10.298435      -280.2347
   3   1.0000     -10.217468      -278.0315
   4   1.0000     -10.214534      -277.9516
   5   1.0000     -10.214181      -277.9420
   6   1.0000     -10.211094      -277.8580
   7   1.0000     -10.210680      -277.8467
   8   1.0000     -10.205880      -277.7161
   9   1.0000      -9.474464      -257.8133
  10   1.0000      -7.214139      -196.3067
  11   1.0000      -7.207403      -196.1234
  12   1.0000      -7.206854      -196.1085
  13   1.0000      -1.024068       -27.8663
  14   1.0000      -0.849354       -23.1121
  15   1.0000      -0.800777       -21.7903
  16   1.0000      -0.746790       -20.3212
  17   1.0000      -0.738491       -20.0953
  18   1.0000      -0.634132       -17.2556
  19   1.0000      -0.589930       -16.0528
  20   1.0000      -0.541796       -14.7430
  21   1.0000      -0.493009       -13.4154
  22   1.0000      -0.455714       -12.4006
  23   1.0000      -0.441770       -12.0212
  24   1.0000      -0.421461       -11.4685
  25   1.0000      -0.413889       -11.2625
  26   1.0000      -0.410915       -11.1816
  27   1.0000      -0.399395       -10.8681
  28   1.0000      -0.358894        -9.7660
  29   1.0000      -0.351129        -9.5547
  30   1.0000      -0.323629        -8.8064
  31   1.0000      -0.289536        -7.8787
  32   1.0000      -0.286861        -7.8059
  33   1.0000      -0.258174        -7.0253
  34   1.0000      -0.256889        -6.9903
  35   1.0000      -0.251883        -6.8541
  36   1.0000      -0.109232        -2.9724
  37   0.0000       0.016189         0.4405
  38   0.0000       0.062498         1.7007
  39   0.0000       0.075243         2.0475
  40   0.0000       0.099890         2.7181
  41   0.0000       0.133784         3.6405

                 SPIN DOWN ORBITALS
  NO   OCC          E(Eh)            E(eV)
   0   1.0000    -101.623494     -2765.3159
   1   1.0000     -19.155663      -521.2521
   2   1.0000     -10.293985      -280.1136
   3   1.0000     -10.216954      -278.0175
   4   1.0000     -10.216269      -277.9988
   5   1.0000     -10.215878      -277.9882
   6   1.0000     -10.207880      -277.7705
   7   1.0000     -10.207511      -277.7605
   8   1.0000     -10.200797      -277.5778
   9   1.0000      -9.474428      -257.8123
  10   1.0000      -7.214357      -196.3126
  11   1.0000      -7.207017      -196.1129
  12   1.0000      -7.206844      -196.1082
  13   1.0000      -1.012577       -27.5536
  14   1.0000      -0.844568       -22.9819
  15   1.0000      -0.797981       -21.7142
  16   1.0000      -0.740634       -20.1537
  17   1.0000      -0.734643       -19.9907
  18   1.0000      -0.621532       -16.9128
  19   1.0000      -0.588333       -16.0093
  20   1.0000      -0.538209       -14.6454
  21   1.0000      -0.487609       -13.2685
  22   1.0000      -0.452743       -12.3198
  23   1.0000      -0.436433       -11.8760
  24   1.0000      -0.419592       -11.4177
  25   1.0000      -0.410012       -11.1570
  26   1.0000      -0.395391       -10.7591
  27   1.0000      -0.386765       -10.5244
  28   1.0000      -0.348655        -9.4874
  29   1.0000      -0.341570        -9.2946
  30   1.0000      -0.322463        -8.7747
  31   1.0000      -0.286157        -7.7867
  32   1.0000      -0.280399        -7.6300
  33   1.0000      -0.247663        -6.7393
  34   1.0000      -0.246402        -6.7049
  35   1.0000      -0.231968        -6.3122
  36   0.0000      -0.018715        -0.5093
  37   0.0000       0.022261         0.6058
  38   0.0000       0.081616         2.2209
  39   0.0000       0.095396         2.5959
  40   0.0000       0.101616         2.7651

MULLIKEN ATOMIC CHARGES AND SPIN POPULATIONS
--------------------------------------------
   0 C :   -0.200185    0.239998
   1 C :   -0.135227   -0.143069
   2 C :   -0.196885    0.371619
   3 C :   -0.132743   -0.139163
   4 C :   -0.184771    0.234272
   5 C :   -0.017338    0.019767
   6 C :    0.030644    0.249634
   7 O :   -0.307102    0.206049
   8 Cl:   -0.317070   -0.002198
   9 H :    0.080788   -0.012560
  10 H :    0.099740    0.005120
  11 H :    0.095080   -0.021131
  12 H :    0.101763    0.005248
  13 H :    0.083304   -0.013587
Sum of atomic charges         :   -1.0000000

LOEWDIN ATOMIC CHARGES AND SPIN POPULATIONS
-------------------------------------------
   0 C :   -0.175269    0.185102
   1 C :   -0.164889   -0.073136
   2 C :   -0.235107    0.287538
   3 C :   -0.166426   -0.071054
   4 C :   -0.187476    0.177719
   5 C :   -0.171767    0.059094
   6 C :   -0.104343    0.237676
   7 O :   -0.274009    0.207989
   8 Cl:   -0.138952    0.006346
   9 H :    0.115778   -0.006004
  10 H :    0.127189    0.002383
  11 H :    0.124131   -0.009723
  12 H :    0.127741    0.002457
  13 H :    0.123399   -0.006386

  Mayer bond orders larger than 0.100000
B(  0-C ,  1-C ) :   1.4820 B(  0-C ,  5-C ) :   1.1968 B(  0-C , 13-H ) :   0.9651
B(  1-C ,  2-C ) :   1.2828 B(  1-C , 12-H ) :   0.9633 B(  2-C ,  3-C ) :   1.2887
B(  2-C , 11-H ) :   0.9690 B(  3-C ,  4-C ) :   1.4864 B(  3-C , 10-H ) :   0.9619
B(  4-C ,  5-C ) :   1.2053 B(  4-C ,  9-H ) :   0.9429 B(  5-C ,  6-C ) :   1.2302
B(  6-C ,  7-O ) :   1.9727 B(  6-C ,  8-Cl) :   0.8322

Dispersion correction           -0.014095421
FINAL SINGLE POINT ENERGY      -804.351729996653

DIPOLE MOMENT
-------------

Method             : SCF
Type of density    : Electron Density
Multiplicity       :   2
Irrep              :   0
Energy             :  -804.3376345758759953 Eh
Relativity type    :
Basis              : AO
                                X                 Y                 Z
Electronic contribution:     11.615305382       1.017394049      -0.000200815
Nuclear contribution   :    -12.991655555      -0.257688840       0.000569777
                        -----------------------------------------
Total Dipole Moment    :     -1.376350173       0.759705209       0.000368962
                        -----------------------------------------
Magnitude (a.u.)       :      1.572097942
Magnitude (Debye)      :      3.995955405

VIBRATIONAL FREQUENCIES
-----------------------

Scaling factor for frequencies =  1.000000000  (already applied!)

     0:       0.00 cm**-1
     1:       0.00 cm**-1
     2:       0.00 cm**-1
     3:       0.00 cm**-1
     4:       0.00 cm**-1
     5:       0.00 cm**-1
     6:      85.88 cm**-1
     7:     138.86 cm**-1
     8:     181.11 cm**-1
     9:     294.81 cm**-1
    10:     367.07 cm**-1
    11:     369.72 cm**-1
    12:     438.85 cm**-1
    13:     488.93 cm**-1
    14:     524.78 cm**-1
    15:     623.35 cm**-1
    16:     638.14 cm**-1
    17:     685.78 cm**-1
    18:     716.78 cm**-1
    19:     813.12 cm**-1
    20:     825.13 cm**-1
    21:     840.30 cm**-1
    22:     982.80 cm**-1
    23:     985.12 cm**-1
    24:     986.64 cm**-1
    25:    1024.99 cm**-1
    26:    1093.52 cm**-1
    27:    1133.40 cm**-1
    28:    1162.85 cm**-1
    29:    1271.27 cm**-1
    30:    1304.50 cm**-1
    31:    1394.25 cm**-1
    32:    1466.88 cm**-1
    33:    1495.41 cm**-1
    34:    1555.43 cm**-1
    35:    1645.50 cm**-1
    36:    1805.82 cm**-1
    37:    3170.45 cm**-1
    38:    3174.61 cm**-1
    39:    3203.43 cm**-1
    40:    3208.78 cm**-1
    41:    3221.71 cm**-1

IR SPECTRUM
-----------

 Mode   freq       eps      Int      T**2         TX        TY        TZ
       cm**-1   L/(mol*cm) km/mol    a.u.
----------------------------------------------------------------------------
  6:     85.88   0.000109    0.55  0.000396  (-0.000148 -0.000291 -0.019890)
  7:    138.86   0.000062    0.31  0.000138  (-0.000395 -0.000395  0.011750)
  8:    181.11   0.000612    3.09  0.001055  ( 0.027796  0.016809  0.000005)
  9:    294.81   0.011861   59.94  0.012555  (-0.090751 -0.065718 -0.000033)
 10:    367.07   0.000897    4.54  0.000763  (-0.001890 -0.001359 -0.027523)
 11:    369.72   0.004697   23.74  0.003965  ( 0.040635  0.048091 -0.000896)
 12:    438.85   0.000054    0.28  0.000039  ( 0.000156 -0.000100 -0.006218)
 13:    488.93   0.005630   28.45  0.003594  (-0.058589 -0.012687  0.000103)
 14:    524.78   0.004393   22.20  0.002612  (-0.000996  0.000136  0.051098)
 15:    623.35   0.001884    9.52  0.000943  (-0.024160 -0.018955 -0.000117)
 16:    638.14   0.038345  193.78  0.018751  ( 0.116470  0.072013 -0.000080)
 17:    685.78   0.018758   94.79  0.008536  ( 0.000115  0.000063 -0.092388)
 18:    716.78   0.004192   21.19  0.001825  (-0.000276  0.000047 -0.042720)
 19:    813.12   0.000000    0.00  0.000000  ( 0.000130  0.000068 -0.000133)
 20:    825.13   0.002931   14.81  0.001108  ( 0.000003 -0.000037 -0.033293)
 21:    840.30   0.036329  183.59  0.013492  ( 0.084506  0.079689  0.000019)
 22:    982.80   0.000002    0.01  0.000001  ( 0.000437 -0.000566 -0.000495)
 23:    985.12   0.000001    0.01  0.000000  ( 0.000442 -0.000229 -0.000267)
 24:    986.64   0.002059   10.41  0.000651  ( 0.020781 -0.014813  0.000099)
 25:   1024.99   0.018427   93.12  0.005610  (-0.071636  0.021875  0.000014)
 26:   1093.52   0.002991   15.11  0.000853  ( 0.015597 -0.024702 -0.000032)
 27:   1133.40   0.002057   10.40  0.000566  ( 0.006009 -0.023028  0.000010)
 28:   1162.85   0.004500   22.74  0.001208  ( 0.023494 -0.025607  0.000030)
 29:   1271.27   0.026458  133.71  0.006495  (-0.029020 -0.075184  0.000057)
 30:   1304.50   0.000945    4.77  0.000226  ( 0.014712 -0.003087 -0.000022)
 31:   1394.25   0.010609   53.61  0.002374  (-0.026786 -0.040706 -0.000044)
 32:   1466.88   0.003293   16.64  0.000701  (-0.013189  0.022949  0.000037)
 33:   1495.41   0.008323   42.06  0.001737  (-0.025140  0.033239 -0.000014)
 34:   1555.43   0.003480   17.59  0.000698  (-0.013789  0.022541 -0.000014)
 35:   1645.50   0.076219  385.18  0.014455  (-0.108714  0.051342 -0.000019)
 36:   1805.82   0.161573  816.52  0.027921  (-0.118195  0.118116 -0.000016)
 37:   3170.45   0.002748   13.89  0.000270  (-0.016178 -0.002960 -0.000017)
 38:   3174.61   0.007718   39.01  0.000759  ( 0.002170  0.027459 -0.000025)
 39:   3203.43   0.004165   21.05  0.000406  ( 0.011189 -0.016748  0.000015)
 40:   3208.78   0.005403   27.30  0.000525  ( 0.018992  0.012834  0.000006)
 41:   3221.71   0.001523    7.70  0.000148  (-0.001265  0.012081  0.000004)

--------------------------
THERMOCHEMISTRY AT 298.15K
--------------------------

Temperature         ...   298.15 K
Pressure            ...     1.00 atm
Total Mass          ...   140.57 AMU
Quasi RRHO          ...     True
Cut-Off Frequency   ...     1.00 cm^-1

Throughout the following assumptions are being made:
  (1) The electronic state is orbitally nondegenerate
      but the spin degeneracy is treated
  (2) There are no thermally accessible electronically excited states
  (3) Hindered rotations indicated by low frequency modes are not
      treated as such but are treated as vibrations and this may
      cause some error
  (4) All equations used are the standard statistical mechanics
      equations for an ideal gas
  (5) All vibrations are strictly harmonic

freq.      85.88  E(vib)   ...       0.48
freq.     138.86  E(vib)   ...       0.42
freq.     181.11  E(vib)   ...       0.37
freq.     294.81  E(vib)   ...       0.27
freq.     367.07  E(vib)   ...       0.22
freq.     369.72  E(vib)   ...       0.21
freq.     438.85  E(vib)   ...       0.17
freq.     488.93  E(vib)   ...       0.15
freq.     524.78  E(vib)   ...       0.13
freq.     623.35  E(vib)   ...       0.09
freq.     638.14  E(vib)   ...       0.09
freq.     685.78  E(vib)   ...       0.07
freq.     716.78  E(vib)   ...       0.07
freq.     813.12  E(vib)   ...       0.05
freq.     825.13  E(vib)   ...       0.04
freq.     840.30  E(vib)   ...       0.04
freq.     982.80  E(vib)   ...       0.02
freq.     985.12  E(vib)   ...       0.02
freq.     986.64  E(vib)   ...       0.02
freq.    1024.99  E(vib)   ...       0.02
freq.    1093.52  E(vib)   ...       0.02
freq.    1133.40  E(vib)   ...       0.01
freq.    1162.85  E(vib)   ...       0.01
freq.    1271.27  E(vib)   ...       0.01
freq.    1304.50  E(vib)   ...       0.01
freq.    1394.25  E(vib)   ...       0.00
freq.    1466.88  E(vib)   ...       0.00
freq.    1495.41  E(vib)   ...       0.00
freq.    1555.43  E(vib)   ...       0.00
freq.    1645.50  E(vib)   ...       0.00
freq.    1805.82  E(vib)   ...       0.00
freq.    3170.45  E(vib)   ...       0.00
freq.    3174.61  E(vib)   ...       0.00
freq.    3203.43  E(vib)   ...       0.00
freq.    3208.78  E(vib)   ...       0.00
freq.    3221.71  E(vib)   ...       0.00

------------
INNER ENERGY
------------

The inner energy is: U= E(el) + E(ZPE) + E(vib) + E(rot) + E(trans)
    E(el)   - is the total energy from the electronic structure calculation
              = E(kin-el) + E(nuc-el) + E(el-el) + E(nuc-nuc)
    E(ZPE)  - the the zero temperature vibrational energy from the frequency calculation
    E(vib)  - the the finite temperature correction to E(ZPE) due to population
              of excited vibrational states
    E(rot)  - is the rotational thermal energy
    E(trans)- is the translational thermal energy

Summary of contributions to the inner energy U:
Electronic energy                ...   -804.35173000 Eh
Zero point energy                ...      0.09869017 Eh      61.93 kcal/mol
Thermal vibrational correction   ...      0.00483114 Eh       3.03 kcal/mol
Thermal rotational correction    ...      0.00141627 Eh       0.89 kcal/mol
Thermal translational correction ...      0.00141627 Eh       0.89 kcal/mol
-----------------------------------------------------------------------
Total thermal energy                   -804.24537615 Eh

Summary of corrections to the electronic energy:
(perhaps to be used in another calculation)
Total thermal correction                  0.00766368 Eh       4.81 kcal/mol
Non-thermal (ZPE) correction              0.09869017 Eh      61.93 kcal/mol
-----------------------------------------------------------------------
Total correction                          0.10635384 Eh      66.74 kcal/mol

--------
ENTHALPY
--------

The enthalpy is H = U + kB*T
                kB is Boltzmann's constant
Total thermal energy              ...   -804.24537615 Eh
Thermal Enthalpy correction       ...      0.00094421 Eh       0.59 kcal/mol
-----------------------------------------------------------------------
Total Enthalpy                    ...   -804.24443194 Eh

Note: Only C1 symmetry has been detected, increase convergence thresholds
      if your molecule has a higher symmetry. Symmetry factor of 1.0 is
      used for the rotational entropy correction.

Note: Rotational entropy computed according to Herzberg
Infrared and Raman Spectra, Chapter V,1, Van Nostrand Reinhold, 1945
Point Group:  C1, Symmetry Number:   1
Rotational constants in cm-1:     0.100672     0.030472     0.023392

Vibrational entropy computed according to the QRRHO of S. Grimme
Chem.Eur.J. 2012 18 9955 using a reference frequency of 100.0 cm-1

-------
ENTROPY
-------

The entropy contributions are T*S = T*(S(el)+S(vib)+S(rot)+S(trans))
     S(el)   - electronic entropy
     S(vib)  - vibrational entropy
     S(rot)  - rotational entropy
     S(trans)- translational entropy
The entropies will be listed as multiplied by the temperature to get
units of energy

Electronic entropy                ...      0.00065446 Eh      0.41 kcal/mol
Vibrational entropy               ...      0.00794916 Eh      4.99 kcal/mol
Rotational entropy                ...      0.01401559 Eh      8.79 kcal/mol
Translational entropy             ...      0.01935352 Eh     12.14 kcal/mol
-----------------------------------------------------------------------
Final entropy term                ...      0.04197273 Eh     26.34 kcal/mol

In case the symmetry of your molecule has not been determined correctly
or in case you have a reason to use a different symmetry number we print
out the resulting rotational entropy values for sn=1,12:

 non-linear molecules -----------------------------------
|  sn= 1 | S(rot)=       0.01401559 Eh      8.79 kcal/mol|
|  sn= 2 | S(rot)=       0.01336113 Eh      8.38 kcal/mol|
|  sn= 3 | S(rot)=       0.01297830 Eh      8.14 kcal/mol|
|  sn= 4 | S(rot)=       0.01270668 Eh      7.97 kcal/mol|
|  sn= 5 | S(rot)=       0.01249599 Eh      7.84 kcal/mol|
|  sn= 6 | S(rot)=       0.01232384 Eh      7.73 kcal/mol|
|  sn= 7 | S(rot)=       0.01217830 Eh      7.64 kcal/mol|
|  sn= 8 | S(rot)=       0.01205222 Eh      7.56 kcal/mol|
|  sn= 9 | S(rot)=       0.01194101 Eh      7.49 kcal/mol|
|  sn=10 | S(rot)=       0.01184153 Eh      7.43 kcal/mol|
|  sn=11 | S(rot)=       0.01175154 Eh      7.37 kcal/mol|
|  sn=12 | S(rot)=       0.01166939 Eh      7.32 kcal/mol|
 linear molecules ---------------------------------------
|  Dinfh | S(rot)=       0.00887155 Eh      5.57 kcal/mol|
|  Cinfv | S(rot)=       0.00952601 Eh      5.98 kcal/mol|
 --------------------------------------------------------

-------------------
GIBBS FREE ENERGY
-------------------

The Gibbs free energy is G = H - T*S

                             ****ORCA TERMINATED NORMALLY****
TOTAL RUN TIME: 0 days 0 hours 6 minutes 17 seconds 431 msec
