                         Program Version 6.0.0  -   RELEASE  -
|  1> !TPSSh aug-cc-pVTZ d3 TightSCF SlowConv RIJCOSX defgrid2
|  2>
|  3> %pal
|  4> nprocs 4
|  5> end
|  6>
|  7> %scf
|  8> MaxIter 1500
|  9> end
| 10>
| 11> %maxcore 3000
| 12>
| 13> !CPCM
| 14> %cpcm smd true
| 15> SMDsolvent "MeCN"
| 16> surfacetype gepol_ses
| 17> rsolv 2.19
| 18> end
| 19>
| 20> * xyz 0 1
| 21> C           1.25000164855842     -1.41071448361037     -0.00000168415599
| 22> C           2.42472534447790     -0.69479139615512     -0.00000685047100
| 23> C           2.39854270226079      0.72067524520134     -0.00000877481015
| 24> C           1.20117735810590      1.39751150319993     -0.00000445095683
| 25> C          -0.02745588139686      0.68852480495358      0.00000564240260
| 26> N          -1.18625775877000      1.39381645036295      0.00001070560090
| 27> C          -2.31490188933646      0.73049306279294      0.00001689560908
| 28> C          -2.40570196692451     -0.68397826108981      0.00001755935062
| 29> C          -1.24368635715401     -1.41618109472248      0.00000969922177
| 30> C           0.00094011374072     -0.74022051327369      0.00000330710167
| 31> H          -1.26232776653674     -2.51106064954577      0.00000897425095
| 32> H          -3.38563440939795     -1.16889742637107      0.00002394159015
| 33> H          -3.23552246654660      1.32983924434354      0.00002054423920
| 34> H           1.15201317629262      2.48898402488494     -0.00000554947415
| 35> H           3.34113721025286      1.27611845570769     -0.00001383228755
| 36> H           3.38561855542436     -1.21756928095046     -0.00000963669760
| 37> H           1.26320168694954     -2.50529278572813     -0.00000049051368
| 38> *
| 39>
| 40>                          ****END OF INPUT****

CARTESIAN COORDINATES (ANGSTROEM)
---------------------------------
  C      1.250002   -1.410714   -0.000002
  C      2.424725   -0.694791   -0.000007
  C      2.398543    0.720675   -0.000009
  C      1.201177    1.397512   -0.000004
  C     -0.027456    0.688525    0.000006
  N     -1.186258    1.393816    0.000011
  C     -2.314902    0.730493    0.000017
  C     -2.405702   -0.683978    0.000018
  C     -1.243686   -1.416181    0.000010
  C      0.000940   -0.740221    0.000003
  H     -1.262328   -2.511061    0.000009
  H     -3.385634   -1.168897    0.000024
  H     -3.235522    1.329839    0.000021
  H      1.152013    2.488984   -0.000006
  H      3.341137    1.276118   -0.000014
  H      3.385619   -1.217569   -0.000010
  H      1.263202   -2.505293   -0.000000

 Total Charge           Charge          ....    0
 Multiplicity           Mult            ....    1
 Number of Electrons    NEL             ....   68
 Basis Dimension        Dim             ....  621

ORBITAL ENERGIES
----------------

  NO   OCC          E(Eh)            E(eV)
   0   2.0000     -14.250687      -387.7809
   1   2.0000     -10.153590      -276.2932
   2   2.0000     -10.152178      -276.2548
   3   2.0000     -10.134060      -275.7618
   4   2.0000     -10.132955      -275.7317
   5   2.0000     -10.123741      -275.4810
   6   2.0000     -10.123540      -275.4755
   7   2.0000     -10.123357      -275.4705
   8   2.0000     -10.121876      -275.4302
   9   2.0000     -10.118963      -275.3510
  10   2.0000      -0.929032       -25.2802
  11   2.0000      -0.831529       -22.6271
  12   2.0000      -0.788017       -21.4430
  13   2.0000      -0.733404       -19.9569
  14   2.0000      -0.722055       -19.6481
  15   2.0000      -0.624768       -17.0008
  16   2.0000      -0.611409       -16.6373
  17   2.0000      -0.583607       -15.8808
  18   2.0000      -0.509388       -13.8612
  19   2.0000      -0.496799       -13.5186
  20   2.0000      -0.486392       -13.2354
  21   2.0000      -0.435132       -11.8405
  22   2.0000      -0.421289       -11.4639
  23   2.0000      -0.407984       -11.1018
  24   2.0000      -0.404557       -11.0086
  25   2.0000      -0.391024       -10.6403
  26   2.0000      -0.382906       -10.4194
  27   2.0000      -0.340596        -9.2681
  28   2.0000      -0.335824        -9.1382
  29   2.0000      -0.330276        -8.9873
  30   2.0000      -0.300364        -8.1733
  31   2.0000      -0.248663        -6.7665
  32   2.0000      -0.247579        -6.7370
  33   2.0000      -0.229321        -6.2401
  34   0.0000      -0.072077        -1.9613
  35   0.0000      -0.036555        -0.9947
  36   0.0000      -0.009213        -0.2507
  37   0.0000      -0.002686        -0.0731
  38   0.0000       0.008616         0.2344

MULLIKEN ATOMIC CHARGES
-----------------------
   0 C :   -0.753541
   1 C :   -0.391273
   2 C :   -0.134096
   3 C :   -0.832751
   4 C :    0.803662
   5 N :   -0.870227
   6 C :   -0.250305
   7 C :   -0.204826
   8 C :   -0.673556
   9 C :    1.327071
  10 H :    0.371651
  11 H :    0.145805
  12 H :    0.326386
  13 H :    0.283485
  14 H :    0.356533
  15 H :    0.518971
  16 H :   -0.022990
Sum of atomic charges:    0.0000000

LOEWDIN ATOMIC CHARGES
----------------------
   0 C :    0.215709
   1 C :    0.198535
   2 C :    0.195602
   3 C :    0.202514
   4 C :   -0.321426
   5 N :    0.370152
   6 C :    0.003611
   7 C :    0.216899
   8 C :    0.222770
   9 C :   -0.128115
  10 H :   -0.151058
  11 H :   -0.169221
  12 H :   -0.181280
  13 H :   -0.174312
  14 H :   -0.169239
  15 H :   -0.169627
  16 H :   -0.161514

  Mayer bond orders larger than 0.100000
B(  0-C ,  1-C ) :   1.4749 B(  0-C ,  2-C ) :  -0.1588 B(  0-C ,  4-C ) :  -0.4461
B(  0-C ,  8-C ) :   0.2803 B(  0-C ,  9-C ) :   0.3943 B(  0-C , 15-H ) :  -0.1377
B(  0-C , 16-H ) :   1.3109 B(  1-C ,  2-C ) :   1.1838 B(  1-C , 15-H ) :   0.3786
B(  2-C ,  3-C ) :   1.4504 B(  2-C ,  4-C ) :  -0.1643 B(  2-C ,  8-C ) :   0.1387
B(  2-C ,  9-C ) :  -0.1750 B(  2-C , 13-H ) :   0.1097 B(  2-C , 14-H ) :   0.6409
B(  2-C , 15-H ) :   0.1269 B(  3-C ,  4-C ) :   0.8708 B(  3-C ,  5-N ) :   0.3487
B(  3-C ,  9-C ) :   0.2111 B(  3-C , 13-H ) :   0.5589 B(  4-C ,  5-N ) :  -0.5091
B(  4-C ,  6-C ) :   0.2178 B(  4-C ,  8-C ) :   0.5503 B(  4-C ,  9-C ) :   0.7563
B(  4-C , 12-H ) :   0.1077 B(  4-C , 13-H ) :   0.1002 B(  5-N ,  6-C ) :   1.6433
B(  6-C ,  7-C ) :   0.9139 B(  6-C ,  8-C ) :   0.2584 B(  6-C ,  9-C ) :  -0.3328
B(  6-C , 12-H ) :   0.6815 B(  7-C ,  8-C ) :   1.3938 B(  7-C ,  9-C ) :  -0.2857
B(  7-C , 11-H ) :   1.0178 B(  8-C ,  9-C ) :   0.1823 B(  8-C , 10-H ) :   0.5923
B(  9-C , 10-H ) :   0.2238

Dispersion correction           -0.023230845
FINAL SINGLE POINT ENERGY      -402.130546308506

DIPOLE MOMENT
-------------

Method             : SCF
Type of density    : Electron Density
Multiplicity       :   1
Irrep              :   0
Energy             :  -402.1073154632587148 Eh
Relativity type    :
Basis              : AO
                                X                 Y                 Z
Electronic contribution:     -1.080591019       0.913038294      -0.000178334
Nuclear contribution   :      1.170564310      -2.171626680      -0.000005487
                        -----------------------------------------
Total Dipole Moment    :      0.089973291      -1.258588386      -0.000183821
                        -----------------------------------------
Magnitude (a.u.)       :      1.261800282
Magnitude (Debye)      :      3.207241434

Rotational constants in cm-1:             0.105214             0.042414             0.030228
Rotational constants in MHz :          3154.234858          1271.541430           906.223008

                             ****ORCA TERMINATED NORMALLY****
TOTAL RUN TIME: 0 days 0 hours 5 minutes 41 seconds 815 msec
