                         Program Version 6.0.0  -   RELEASE  -
|  1> !PBE0 aug-cc-pVTZ d3 TightSCF SlowConv RIJCOSX defgrid2
|  2>
|  3> %pal
|  4> nprocs 6
|  5> end
|  6>
|  7> %scf
|  8> MaxIter 1500
|  9> end
| 10>
| 11> %maxcore 3000
| 12>
| 13> !CPCM
| 14> %cpcm smd true
| 15> SMDsolvent "MeCN"
| 16> surfacetype gepol_ses
| 17> rsolv 2.19
| 18> end
| 19>
| 20> * xyz 0 1
| 21>   C          -3.63585826706225      2.04954257401693      0.47443381810844
| 22>   C          -4.87241983115698      1.42440470473132      0.35830383536464
| 23>   C          -2.46535713813143      1.38616628453744      0.08266169164053
| 24>   C          -2.55776657547918      0.09897886985960     -0.46306142975693
| 25>   C          -3.79978924952600     -0.51916986182258     -0.59803099874730
| 26>   C          -4.95599832971811      0.13746555345514     -0.17809343648610
| 27>   C          -1.17321606171113      2.13343259763450      0.18535792234855
| 28>   C           0.10741425373326      1.38186400208811      0.36860268391772
| 29>   C           1.28701662685068      1.98211173251186     -0.09199289471826
| 30>   C           2.51435831281490      1.35446088401070      0.08950879777202
| 31>   C           2.57960999330580      0.13076888041485      0.75971104026335
| 32>   C           1.41455681703054     -0.45984247248896      1.24776587112461
| 33>   C           0.18154991647772      0.15903136862244      1.04843910770257
| 34>   O          -1.16409607817297      3.34634804651925      0.11965758705371
| 35>   H          -3.86490029176021     -1.51883268544354     -1.03758855311185
| 36>   H          -5.92944194329363     -0.35260028721037     -0.27615452017651
| 37>   H          -3.54961418329670      3.06533225879298      0.86902811355696
| 38>   H          -5.77986414959084      1.94364611495317      0.68059448976304
| 39>   H          -1.65609565460764     -0.41312956350598     -0.80981363751728
| 40>   H          -0.72685535311036     -0.29990211983977      1.44815127666628
| 41>   H           3.54578493689968     -0.36081337126485      0.90876593254533
| 42>   H           1.46572642491924     -1.40813704309686      1.79081220626573
| 43>   H           1.21423966773037      2.95126688882692     -0.59239016424858
| 44>   H           3.42886668785525      1.82280543469765     -0.28640901233067
| 45> *
| 46>
| 47>                          ****END OF INPUT****

CARTESIAN COORDINATES (ANGSTROEM)
---------------------------------
  C     -3.635858    2.049543    0.474434
  C     -4.872420    1.424405    0.358304
  C     -2.465357    1.386166    0.082662
  C     -2.557767    0.098979   -0.463061
  C     -3.799789   -0.519170   -0.598031
  C     -4.955998    0.137466   -0.178093
  C     -1.173216    2.133433    0.185358
  C      0.107414    1.381864    0.368603
  C      1.287017    1.982112   -0.091993
  C      2.514358    1.354461    0.089509
  C      2.579610    0.130769    0.759711
  C      1.414557   -0.459842    1.247766
  C      0.181550    0.159031    1.048439
  O     -1.164096    3.346348    0.119658
  H     -3.864900   -1.518833   -1.037589
  H     -5.929442   -0.352600   -0.276155
  H     -3.549614    3.065332    0.869028
  H     -5.779864    1.943646    0.680594
  H     -1.656096   -0.413130   -0.809814
  H     -0.726855   -0.299902    1.448151
  H      3.545785   -0.360813    0.908766
  H      1.465726   -1.408137    1.790812
  H      1.214240    2.951267   -0.592390
  H      3.428867    1.822805   -0.286409

 Total Charge           Charge          ....    0
 Multiplicity           Mult            ....    1
 Number of Electrons    NEL             ....   96
 Basis Dimension        Dim             ....  874

ORBITAL ENERGIES
----------------

  NO   OCC          E(Eh)            E(eV)
   0   2.0000     -19.202678      -522.5314
   1   2.0000     -10.321753      -280.8692
   2   2.0000     -10.246393      -278.8185
   3   2.0000     -10.246374      -278.8180
   4   2.0000     -10.242360      -278.7088
   5   2.0000     -10.242321      -278.7077
   6   2.0000     -10.239846      -278.6404
   7   2.0000     -10.239820      -278.6397
   8   2.0000     -10.239417      -278.6287
   9   2.0000     -10.239400      -278.6283
  10   2.0000     -10.236679      -278.5542
  11   2.0000     -10.236652      -278.5535
  12   2.0000     -10.236429      -278.5474
  13   2.0000     -10.236402      -278.5466
  14   2.0000      -1.081149       -29.4195
  15   2.0000      -0.895139       -24.3580
  16   2.0000      -0.889218       -24.1969
  17   2.0000      -0.803123       -21.8541
  18   2.0000      -0.780094       -21.2274
  19   2.0000      -0.776803       -21.1379
  20   2.0000      -0.772947       -21.0330
  21   2.0000      -0.676557       -18.4100
  22   2.0000      -0.636874       -17.3302
  23   2.0000      -0.631625       -17.1874
  24   2.0000      -0.620452       -16.8834
  25   2.0000      -0.576496       -15.6873
  26   2.0000      -0.546839       -14.8803
  27   2.0000      -0.519646       -14.1403
  28   2.0000      -0.487553       -13.2670
  29   2.0000      -0.482687       -13.1346
  30   2.0000      -0.471545       -12.8314
  31   2.0000      -0.460996       -12.5443
  32   2.0000      -0.450702       -12.2642
  33   2.0000      -0.443910       -12.0794
  34   2.0000      -0.438105       -11.9215
  35   2.0000      -0.437676       -11.9098
  36   2.0000      -0.418934       -11.3998
  37   2.0000      -0.394755       -10.7418
  38   2.0000      -0.379814       -10.3353
  39   2.0000      -0.376000       -10.2315
  40   2.0000      -0.370084       -10.0705
  41   2.0000      -0.355890        -9.6843
  42   2.0000      -0.354628        -9.6499
  43   2.0000      -0.284554        -7.7431
  44   2.0000      -0.278319        -7.5735
  45   2.0000      -0.276396        -7.5211
  46   2.0000      -0.274638        -7.4733
  47   2.0000      -0.268459        -7.3051
  48   0.0000      -0.071062        -1.9337
  49   0.0000      -0.024335        -0.6622
  50   0.0000      -0.018795        -0.5114
  51   0.0000      -0.010555        -0.2872
  52   0.0000       0.000448         0.0122

MULLIKEN ATOMIC CHARGES
-----------------------
   0 C :   -1.258503
   1 C :   -0.544101
   2 C :    1.711762
   3 C :   -0.692459
   4 C :   -1.083445
   5 C :   -0.260924
   6 C :    0.817366
   7 C :    1.709036
   8 C :   -1.268715
   9 C :   -0.562592
  10 C :   -0.297656
  11 C :   -1.082429
  12 C :   -0.697744
  13 O :   -0.956653
  14 H :    0.561816
  15 H :    0.549547
  16 H :    0.047372
  17 H :    0.669644
  18 H :    0.364860
  19 H :    0.355468
  20 H :    0.574898
  21 H :    0.572334
  22 H :    0.033139
  23 H :    0.737977
Sum of atomic charges:    0.0000000

LOEWDIN ATOMIC CHARGES
----------------------
   0 C :    0.193699
   1 C :    0.200892
   2 C :   -0.141726
   3 C :    0.194452
   4 C :    0.205850
   5 C :    0.195571
   6 C :   -0.543249
   7 C :   -0.141706
   8 C :    0.193689
   9 C :    0.200891
  10 C :    0.195486
  11 C :    0.205839
  12 C :    0.194473
  13 O :    0.506567
  14 H :   -0.162740
  15 H :   -0.162119
  16 H :   -0.174607
  17 H :   -0.164321
  18 H :   -0.166594
  19 H :   -0.166438
  20 H :   -0.162130
  21 H :   -0.162721
  22 H :   -0.174776
  23 H :   -0.164280

  Mayer bond orders larger than 0.100000
B(  0-C ,  1-C ) :   1.3082 B(  0-C ,  2-C ) :   0.1388 B(  0-C ,  3-C ) :  -0.4214
B(  0-C ,  4-C ) :   0.1956 B(  0-C ,  5-C ) :  -0.1889 B(  0-C ,  6-C ) :   0.2708
B(  0-C , 16-H ) :   1.2975 B(  0-C , 17-H ) :  -0.1500 B(  1-C ,  4-C ) :   0.1878
B(  1-C ,  5-C ) :   1.2820 B(  1-C , 17-H ) :   0.2786 B(  1-C , 18-H ) :  -0.1079
B(  2-C ,  3-C ) :   0.7066 B(  2-C ,  4-C ) :  -0.1759 B(  2-C ,  6-C ) :   0.4120
B(  2-C ,  7-C ) :  -0.1171 B(  2-C , 16-H ) :  -0.1078 B(  2-C , 17-H ) :   0.1093
B(  3-C ,  4-C ) :   1.3808 B(  3-C ,  5-C ) :  -0.1246 B(  3-C ,  6-C ) :   0.2061
B(  3-C , 18-H ) :   1.0487 B(  4-C ,  5-C ) :   1.4248 B(  4-C , 14-H ) :   0.4139
B(  5-C ,  6-C ) :   0.1458 B(  5-C , 14-H ) :   0.1156 B(  5-C , 15-H ) :   0.5160
B(  6-C ,  7-C ) :   0.4185 B(  6-C ,  8-C ) :   0.2448 B(  6-C , 10-C ) :   0.1351
B(  6-C , 12-C ) :   0.1966 B(  6-C , 13-O ) :   0.4420 B(  6-C , 16-H ) :  -0.1782
B(  6-C , 22-H ) :  -0.1855 B(  7-C ,  8-C ) :   0.1434 B(  7-C , 11-C ) :  -0.1610
B(  7-C , 12-C ) :   0.7212 B(  7-C , 22-H ) :  -0.1125 B(  7-C , 23-H ) :   0.1184
B(  8-C ,  9-C ) :   1.3538 B(  8-C , 10-C ) :  -0.1878 B(  8-C , 11-C ) :   0.1958
B(  8-C , 12-C ) :  -0.4215 B(  8-C , 22-H ) :   1.3371 B(  8-C , 23-H ) :  -0.1562
B(  9-C , 10-C ) :   1.3188 B(  9-C , 11-C ) :   0.2088 B(  9-C , 19-H ) :  -0.1126
B(  9-C , 23-H ) :   0.1558 B( 10-C , 11-C ) :   1.4621 B( 10-C , 12-C ) :  -0.1187
B( 10-C , 20-H ) :   0.4687 B( 10-C , 21-H ) :   0.1242 B( 10-C , 23-H ) :   0.1156
B( 11-C , 12-C ) :   1.3698 B( 11-C , 21-H ) :   0.3827 B( 12-C , 18-H ) :  -0.1013
B( 12-C , 19-H ) :   1.0591 B( 13-O , 16-H ) :   0.2958 B( 13-O , 22-H ) :   0.2965
B( 16-H , 18-H ) :   0.1352 B( 19-H , 22-H ) :   0.1485

Dispersion correction           -0.026226864
FINAL SINGLE POINT ENERGY      -576.189655679916

DIPOLE MOMENT
-------------

Method             : SCF
Type of density    : Electron Density
Multiplicity       :   1
Irrep              :   0
Energy             :  -576.1634288154792785 Eh
Relativity type    :
Basis              : AO
                                X                 Y                 Z
Electronic contribution:      0.023490036       3.146544391      -0.165455135
Nuclear contribution   :     -0.036869412      -4.873128971       0.257597129
                        -----------------------------------------
Total Dipole Moment    :     -0.013379376      -1.726584580       0.092141994
                        -----------------------------------------
Magnitude (a.u.)       :      1.729093249
Magnitude (Debye)      :      4.395005763

Rotational constants in cm-1:             0.057049             0.013730             0.011699
Rotational constants in MHz :          1710.297566           411.601828           350.719713

                             ****ORCA TERMINATED NORMALLY****
TOTAL RUN TIME: 0 days 0 hours 7 minutes 8 seconds 121 msec
