                         Program Version 6.0.0  -   RELEASE  -
|  1> !r2SCAN opt aug-cc-pVTZ d3 TightSCF SlowConv RIJCOSX defgrid2
|  2>
|  3> %pal
|  4> nprocs 8
|  5> end
|  6>
|  7> %scf
|  8> MaxIter 1500
|  9> end
| 10>
| 11> %maxcore 3500
| 12>
| 13> !CPCM
| 14> %cpcm smd true
| 15> SMDsolvent "MeCN"
| 16> surfacetype gepol_ses
| 17> rsolv 2.19
| 18> end
| 19>
| 20> * xyz 1 2
| 21> C          -0.22428548195010     -1.24213438922305     -0.03849982740281
| 22> C           1.14800811610277     -1.22870080724969      0.00227297677880
| 23> C           1.84566180598227     -0.00004019353139      0.02297012210753
| 24> C           1.14805042698559      1.22864411313713      0.00227054482980
| 25> C          -0.22424154749405      1.24212983950181     -0.03850931873892
| 26> C          -0.94084900168795      0.00001024661649     -0.05989305493678
| 27> N          -2.26985305582395      0.00003075135377     -0.09979281491323
| 28> H          -2.80165535396914      0.86997483968693     -0.11591197867223
| 29> H          -2.80167508667297     -0.86990117124685     -0.11590823438470
| 30> H          -0.77890173993705      2.18488554366972     -0.05504522287995
| 31> H           1.70373713208460      2.16980587419055      0.01885237386387
| 32> H           2.93889913121278     -0.00005967561260      0.05550059305168
| 33> H           1.70365895934134     -2.16988118368011      0.01885253182221
| 34> H          -0.77898600417414     -2.18486378761269     -0.05503389052528
| 35> *
| 36>
| 37>                          ****END OF INPUT****
 Total Charge           Charge          ....    1
 Multiplicity           Mult            ....    2
 Number of Electrons    NEL             ....   49
Dispersion correction           -0.003786564
FINAL SINGLE POINT ENERGY      -287.370076099613
Dispersion correction             ... done (  0.1 sec)
Dispersion correction           -0.003796206
FINAL SINGLE POINT ENERGY      -287.370763209649
Dispersion correction             ... done (  0.0 sec)
Dispersion correction           -0.003797199
FINAL SINGLE POINT ENERGY      -287.370776892361
Dispersion correction             ... done (  0.0 sec)
Dispersion correction           -0.003797615
FINAL SINGLE POINT ENERGY      -287.370780608586
Dispersion correction             ... done (  0.0 sec)
                    ***********************HURRAY********************

CARTESIAN COORDINATES (ANGSTROEM)
---------------------------------
  C     -0.224257   -1.238948   -0.039154
  C      1.143721   -1.223574    0.002317
  C      1.837844   -0.000039    0.023298
  C      1.143763    1.223519    0.002316
  C     -0.224214    1.238940   -0.039154
  C     -0.932594    0.000008   -0.059849
  N     -2.255958    0.000032   -0.098277
  H     -2.780111    0.865334   -0.114730
  H     -2.780143   -0.865250   -0.114726
  H     -0.785197    2.164701   -0.056400
  H      1.695296    2.154055    0.018770
  H      2.919470   -0.000059    0.055325
  H      1.695221   -2.154129    0.018779
  H     -0.785273   -2.164689   -0.056390

 Multiplicity           Mult            ....    2
 Number of Electrons    NEL             ....   49
 Basis Dimension        Dim             ....  483

ORBITAL ENERGIES
----------------
                 SPIN UP ORBITALS
  NO   OCC          E(Eh)            E(eV)
   0   1.0000     -14.258007      -387.9801
   1   1.0000     -10.142091      -275.9803
   2   1.0000     -10.087283      -274.4889
   3   1.0000     -10.083200      -274.3778
   4   1.0000     -10.083195      -274.3777
   5   1.0000     -10.071207      -274.0515
   6   1.0000     -10.071206      -274.0515
   7   1.0000      -0.968562       -26.3559
   8   1.0000      -0.851689       -23.1756
   9   1.0000      -0.758696       -20.6452
  10   1.0000      -0.739487       -20.1225
  11   1.0000      -0.623846       -16.9757
  12   1.0000      -0.620357       -16.8808
  13   1.0000      -0.540514       -14.7081
  14   1.0000      -0.533554       -14.5187
  15   1.0000      -0.489942       -13.3320
  16   1.0000      -0.439443       -11.9578
  17   1.0000      -0.431167       -11.7327
  18   1.0000      -0.427555       -11.6344
  19   1.0000      -0.424228       -11.5438
  20   1.0000      -0.362547        -9.8654
  21   1.0000      -0.351999        -9.5784
  22   1.0000      -0.341790        -9.3006
  23   1.0000      -0.281618        -7.6632
  24   1.0000      -0.247158        -6.7255
  25   0.0000      -0.067884        -1.8472
  26   0.0000      -0.065887        -1.7929
  27   0.0000       0.004637         0.1262
  28   0.0000       0.018261         0.4969
  29   0.0000       0.024379         0.6634

                 SPIN DOWN ORBITALS
  NO   OCC          E(Eh)            E(eV)
   0   1.0000     -14.248256      -387.7148
   1   1.0000     -10.141660      -275.9686
   2   1.0000     -10.080373      -274.3009
   3   1.0000     -10.079122      -274.2668
   4   1.0000     -10.079118      -274.2667
   5   1.0000     -10.073398      -274.1111
   6   1.0000     -10.073394      -274.1110
   7   1.0000      -0.954314       -25.9682
   8   1.0000      -0.842999       -22.9392
   9   1.0000      -0.754740       -20.5375
  10   1.0000      -0.724339       -19.7103
  11   1.0000      -0.621181       -16.9032
  12   1.0000      -0.612828       -16.6759
  13   1.0000      -0.538599       -14.6560
  14   1.0000      -0.528290       -14.3755
  15   1.0000      -0.485077       -13.1996
  16   1.0000      -0.436243       -11.8708
  17   1.0000      -0.428542       -11.6612
  18   1.0000      -0.423832       -11.5331
  19   1.0000      -0.400753       -10.9050
  20   1.0000      -0.360608        -9.8127
  21   1.0000      -0.340191        -9.2571
  22   1.0000      -0.324044        -8.8177
  23   1.0000      -0.271902        -7.3988
  24   0.0000      -0.195884        -5.3303
  25   0.0000      -0.056186        -1.5289
  26   0.0000      -0.039043        -1.0624
  27   0.0000       0.006543         0.1780
  28   0.0000       0.020693         0.5631

MULLIKEN ATOMIC CHARGES AND SPIN POPULATIONS
--------------------------------------------
   0 C :   -0.662775    0.244310
   1 C :   -0.328970   -0.168145
   2 C :   -0.370597    0.426141
   3 C :   -0.328967   -0.168148
   4 C :   -0.662761    0.244312
   5 C :    1.186719    0.050863
   6 N :   -0.323094    0.410136
   7 H :    0.052549   -0.008673
   8 H :    0.052548   -0.008673
   9 H :    0.603664   -0.007729
  10 H :    0.322042   -0.010880
  11 H :    0.533939    0.015094
  12 H :    0.322043   -0.010880
  13 H :    0.603660   -0.007728
Sum of atomic charges         :    1.0000000

LOEWDIN ATOMIC CHARGES AND SPIN POPULATIONS
-------------------------------------------
   0 C :    0.287200    0.115742
   1 C :    0.250951    0.031848
   2 C :    0.267853    0.182220
   3 C :    0.250953    0.031847
   4 C :    0.287203    0.115742
   5 C :   -0.162606    0.130963
   6 N :    0.976826    0.254997
   7 H :   -0.198580    0.033777
   8 H :   -0.198580    0.033777
   9 H :   -0.146076    0.022317
  10 H :   -0.158299   -0.010482
  11 H :   -0.152470    0.045418
  12 H :   -0.158299   -0.010481
  13 H :   -0.146077    0.022316

  Mayer bond orders larger than 0.100000
B(  0-C ,  1-C ) :   1.3584 B(  0-C ,  2-C ) :   0.2815 B(  0-C ,  3-C ) :  -0.1527
B(  0-C ,  4-C ) :   0.3612 B(  0-C ,  5-C ) :   0.4932 B(  0-C ,  6-N ) :  -0.1300
B(  0-C , 13-H ) :   0.1676 B(  1-C ,  2-C ) :   0.9316 B(  1-C ,  3-C ) :  -0.1264
B(  1-C ,  4-C ) :  -0.1527 B(  1-C ,  5-C ) :  -0.2181 B(  1-C , 12-H ) :   0.8607
B(  2-C ,  3-C ) :   0.9316 B(  2-C ,  4-C ) :   0.2815 B(  2-C ,  5-C ) :  -0.1365
B(  2-C , 11-H ) :   0.4809 B(  3-C ,  4-C ) :   1.3585 B(  3-C ,  5-C ) :  -0.2181
B(  3-C , 10-H ) :   0.8607 B(  4-C ,  5-C ) :   0.4931 B(  4-C ,  6-N ) :  -0.1300
B(  4-C ,  9-H ) :   0.1676 B(  5-C ,  6-N ) :   0.9293 B(  5-C ,  9-H ) :   0.1041
B(  5-C , 13-H ) :   0.1041 B(  6-N ,  7-H ) :   1.1115 B(  6-N ,  8-H ) :   1.1115

Dispersion correction           -0.003797586
FINAL SINGLE POINT ENERGY      -287.370784045091

DIPOLE MOMENT
-------------

Method             : SCF
Type of density    : Electron Density
Multiplicity       :   2
Irrep              :   0
Energy             :  -287.3669864587225788 Eh
Relativity type    :
Basis              : AO
                                X                 Y                 Z
Electronic contribution:     -0.942309941       0.000032103      -0.027841392
Nuclear contribution   :     -0.820165332       0.000016156      -0.026163331
                        -----------------------------------------
Total Dipole Moment    :     -1.762475273       0.000048259      -0.054004723
                        -----------------------------------------
Magnitude (a.u.)       :      1.763302470
Magnitude (Debye)      :      4.481958691

Rotational constants in cm-1:             0.180980             0.090484             0.060324
Rotational constants in MHz :          5425.637142          2712.627204          1808.460960

                             ****ORCA TERMINATED NORMALLY****
TOTAL RUN TIME: 0 days 0 hours 8 minutes 17 seconds 139 msec
