                         Program Version 6.0.0  -   RELEASE  -
|  1> !B3LYP aug-cc-pVTZ d3 TightSCF SlowConv RIJCOSX defgrid2
|  2>
|  3> %pal
|  4> nprocs 4
|  5> end
|  6>
|  7> %scf
|  8> MaxIter 1500
|  9> end
| 10>
| 11> %maxcore 3000
| 12>
| 13> !CPCM
| 14> %cpcm smd true
| 15> SMDsolvent "MeCN"
| 16> surfacetype gepol_ses
| 17> rsolv 2.19
| 18> end
| 19>
| 20> * xyz 0 1
| 21> C          -1.38053685940747     -1.21804540995532     -0.00011060626091
| 22> C           0.00880673788646     -1.21761505772678     -0.00009043075416
| 23> C           0.68407451418940     -0.00000826905018      0.00002079320919
| 24> C           0.00881895322689      1.21760888927779      0.00010917128456
| 25> C          -1.38052397185078      1.21805873995267      0.00009090964868
| 26> C          -2.05580079114724      0.00001020724702     -0.00001816987555
| 27> F          -3.38048726341071      0.00001804396249     -0.00003514545168
| 28> H          -1.95216629027619      2.14893818448022      0.00016183253789
| 29> H           0.58216467537740      2.14580924232628      0.00018829183514
| 30> N           2.15012174350491     -0.00002110651836      0.00004214105770
| 31> O           2.70660121926706     -1.07534719974692     -0.00006677256489
| 32> O           2.70659645313172      1.07532442371150     -0.00002414626605
| 33> H           0.58214126111558     -2.14581854067801     -0.00015767613729
| 34> H          -1.95219098160703     -2.14891564728239     -0.00019689226262
| 35> *
| 36>
| 37>                          ****END OF INPUT****

CARTESIAN COORDINATES (ANGSTROEM)
---------------------------------
  C     -1.380537   -1.218045   -0.000111
  C      0.008807   -1.217615   -0.000090
  C      0.684075   -0.000008    0.000021
  C      0.008819    1.217609    0.000109
  C     -1.380524    1.218059    0.000091
  C     -2.055801    0.000010   -0.000018
  F     -3.380487    0.000018   -0.000035
  H     -1.952166    2.148938    0.000162
  H      0.582165    2.145809    0.000188
  N      2.150122   -0.000021    0.000042
  O      2.706601   -1.075347   -0.000067
  O      2.706596    1.075324   -0.000024
  H      0.582141   -2.145819   -0.000158
  H     -1.952191   -2.148916   -0.000197

 Total Charge           Charge          ....    0
 Multiplicity           Mult            ....    1
 Number of Electrons    NEL             ....   72
 Basis Dimension        Dim             ....  552

ORBITAL ENERGIES
----------------

  NO   OCC          E(Eh)            E(eV)
   0   2.0000     -24.717870      -672.6074
   1   2.0000     -19.169868      -521.6386
   2   2.0000     -19.169863      -521.6385
   3   2.0000     -14.563904      -396.3040
   4   2.0000     -10.282516      -279.8015
   5   2.0000     -10.237182      -278.5679
   6   2.0000     -10.207090      -277.7490
   7   2.0000     -10.207089      -277.7490
   8   2.0000     -10.198545      -277.5165
   9   2.0000     -10.198535      -277.5163
  10   2.0000      -1.257625       -34.2217
  11   2.0000      -1.251871       -34.0652
  12   2.0000      -1.076857       -29.3028
  13   2.0000      -0.893812       -24.3218
  14   2.0000      -0.810630       -22.0584
  15   2.0000      -0.776222       -21.1221
  16   2.0000      -0.704463       -19.1694
  17   2.0000      -0.645768       -17.5722
  18   2.0000      -0.609257       -16.5787
  19   2.0000      -0.571767       -15.5586
  20   2.0000      -0.560477       -15.2514
  21   2.0000      -0.553219       -15.0539
  22   2.0000      -0.535816       -14.5803
  23   2.0000      -0.508669       -13.8416
  24   2.0000      -0.495573       -13.4852
  25   2.0000      -0.462338       -12.5809
  26   2.0000      -0.446198       -12.1417
  27   2.0000      -0.434356       -11.8194
  28   2.0000      -0.422877       -11.5071
  29   2.0000      -0.384990       -10.4761
  30   2.0000      -0.363424        -9.8893
  31   2.0000      -0.331325        -9.0158
  32   2.0000      -0.325012        -8.8440
  33   2.0000      -0.309690        -8.4271
  34   2.0000      -0.280998        -7.6463
  35   2.0000      -0.273095        -7.4313
  36   0.0000      -0.096289        -2.6202
  37   0.0000      -0.035252        -0.9593
  38   0.0000      -0.002325        -0.0633
  39   0.0000      -0.001719        -0.0468
  40   0.0000       0.014160         0.3853

MULLIKEN ATOMIC CHARGES
-----------------------
   0 C :   -0.577212
   1 C :   -0.452257
   2 C :    0.392725
   3 C :   -0.454129
   4 C :   -0.578146
   5 C :    0.723058
   6 F :   -0.465970
   7 H :    0.373969
   8 H :    0.612122
   9 N :    0.840204
  10 O :   -0.700026
  11 O :   -0.700036
  12 H :    0.612535
  13 H :    0.373163
Sum of atomic charges:   -0.0000000

LOEWDIN ATOMIC CHARGES
----------------------
   0 C :    0.212311
   1 C :    0.197935
   2 C :   -0.241535
   3 C :    0.197931
   4 C :    0.212307
   5 C :   -0.536959
   6 F :    0.566756
   7 H :   -0.157911
   8 H :   -0.181660
   9 N :   -0.757856
  10 O :    0.414133
  11 O :    0.414121
  12 H :   -0.181658
  13 H :   -0.157915

  Mayer bond orders larger than 0.100000
B(  0-C ,  1-C ) :   1.3170 B(  0-C ,  2-C ) :  -0.3342 B(  0-C ,  4-C ) :   0.1367
B(  0-C ,  5-C ) :   1.3004 B(  0-C ,  6-F ) :   0.2109 B(  0-C , 13-H ) :   0.6818
B(  1-C ,  2-C ) :   0.9718 B(  1-C ,  3-C ) :   0.1231 B(  1-C ,  9-N ) :  -0.2016
B(  1-C , 12-H ) :   0.3004 B(  2-C ,  3-C ) :   0.9729 B(  2-C ,  4-C ) :  -0.3344
B(  2-C ,  9-N ) :   1.1063 B(  2-C , 10-O ) :   0.3685 B(  2-C , 11-O ) :   0.3693
B(  3-C ,  4-C ) :   1.3187 B(  3-C ,  8-H ) :   0.3007 B(  3-C ,  9-N ) :  -0.1989
B(  4-C ,  5-C ) :   1.3003 B(  4-C ,  6-F ) :   0.2135 B(  4-C ,  7-H ) :   0.6814
B(  5-C ,  6-F ) :   0.1312 B(  6-F ,  7-H ) :   0.1480 B(  6-F , 13-H ) :   0.1488
B(  9-N , 10-O ) :   0.8728 B(  9-N , 11-O ) :   0.8734 B( 10-O , 11-O ) :   0.1788

Dispersion correction           -0.025253718
FINAL SINGLE POINT ENERGY      -535.961543465543

DIPOLE MOMENT
-------------

Method             : SCF
Type of density    : Electron Density
Multiplicity       :   1
Irrep              :   0
Energy             :  -535.9362897479079493 Eh
Relativity type    :
Basis              : AO
                                X                 Y                 Z
Electronic contribution:     -2.316272745      -0.000036027       0.000160050
Nuclear contribution   :      0.647078379      -0.000000805       0.000058033
                        -----------------------------------------
Total Dipole Moment    :     -1.669194366      -0.000036832       0.000218083
                        -----------------------------------------
Magnitude (a.u.)       :      1.669194381
Magnitude (Debye)      :      4.242754939

Rotational constants in cm-1:             0.132896             0.026895             0.022368
Rotational constants in MHz :          3984.136470           806.287592           670.579423

                             ****ORCA TERMINATED NORMALLY****
TOTAL RUN TIME: 0 days 0 hours 3 minutes 55 seconds 466 msec
