                         Program Version 6.0.0  -   RELEASE  -
|  1> !r2SCAN opt aug-cc-pVTZ d3 TightSCF SlowConv RIJCOSX defgrid2
|  2>
|  3> %pal
|  4> nprocs 8
|  5> end
|  6>
|  7> %scf
|  8> MaxIter 1500
|  9> end
| 10>
| 11> %maxcore 3500
| 12>
| 13> !CPCM
| 14> %cpcm smd true
| 15> SMDsolvent "MeCN"
| 16> surfacetype gepol_ses
| 17> rsolv 2.19
| 18> end
| 19>
| 20> * xyz 1 2
| 21> C           0.86770061929664     -1.42689432299132      0.00000897101558
| 22> C           2.10468085183811     -0.72689058389273     -0.00000825447661
| 23> C           2.18067581844409      0.67999913600521     -0.00001076122154
| 24> C           1.03283927538202      1.45145343690800      0.00000700381243
| 25> C          -0.22537653673213      0.77678989280940      0.00001343275561
| 26> C          -0.25105693451531     -0.64408759720608      0.00001506224490
| 27> O          -1.55281870061497     -1.07751154880539      0.00002630462179
| 28> C          -2.31401480280601     -0.00668804123383      0.00001929043081
| 29> C          -1.56234358562406      1.18487206630760      0.00001231970991
| 30> H          -1.97074260676972      2.19593761753153      0.00001018835187
| 31> H          -3.39348512015147     -0.17364143845796      0.00002005021122
| 32> H           1.07805269996545      2.54351477894486     -0.00000377489980
| 33> H           3.16218666325774      1.15998906195145     -0.00002790877216
| 34> H           3.03083245792013     -1.30967197800346     -0.00002115939682
| 35> H           0.82193140110952     -2.51820987986727      0.00000983561282
| 36> *
| 37>
| 38>                          ****END OF INPUT****
 Total Charge           Charge          ....    1
 Multiplicity           Mult            ....    2
 Number of Electrons    NEL             ....   61
Dispersion correction           -0.004572812
FINAL SINGLE POINT ENERGY      -383.397088553479
Dispersion correction             ... done (  0.1 sec)
Dispersion correction           -0.004581907
FINAL SINGLE POINT ENERGY      -383.398101625421
Dispersion correction             ... done (  0.1 sec)
Dispersion correction           -0.004584011
FINAL SINGLE POINT ENERGY      -383.398190739819
Dispersion correction             ... done (  0.1 sec)
Dispersion correction           -0.004584352
FINAL SINGLE POINT ENERGY      -383.398206398041
Dispersion correction             ... done (  0.1 sec)
                    ***********************HURRAY********************

CARTESIAN COORDINATES (ANGSTROEM)
---------------------------------
  C      0.870742   -1.425211   -0.000776
  C      2.100384   -0.723616    0.000594
  C      2.171091    0.678979   -0.000188
  C      1.027437    1.447033   -0.001134
  C     -0.221454    0.771592   -0.001435
  C     -0.239573   -0.644165   -0.002261
  O     -1.554465   -1.089290   -0.002454
  C     -2.312681    0.002553   -0.000118
  C     -1.552816    1.181003    0.000310
  H     -1.954781    2.181417    0.002964
  H     -3.381144   -0.150008    0.002298
  H      1.065365    2.528033   -0.001709
  H      3.142273    1.154495    0.000576
  H      3.017432   -1.298347    0.003177
  H      0.831252   -2.505506    0.000226

 Multiplicity           Mult            ....    2
 Number of Electrons    NEL             ....   61
 Basis Dimension        Dim             ....  552

ORBITAL ENERGIES
----------------
                 SPIN UP ORBITALS
  NO   OCC          E(Eh)            E(eV)
   0   1.0000     -19.083044      -519.2760
   1   1.0000     -10.172955      -276.8202
   2   1.0000     -10.146568      -276.1022
   3   1.0000     -10.105391      -274.9817
   4   1.0000     -10.102534      -274.9039
   5   1.0000     -10.100421      -274.8464
   6   1.0000     -10.094398      -274.6825
   7   1.0000     -10.089878      -274.5595
   8   1.0000     -10.070933      -274.0440
   9   1.0000      -1.140215       -31.0268
  10   1.0000      -0.877315       -23.8729
  11   1.0000      -0.823804       -22.4168
  12   1.0000      -0.769584       -20.9415
  13   1.0000      -0.746359       -20.3095
  14   1.0000      -0.651324       -17.7234
  15   1.0000      -0.615966       -16.7613
  16   1.0000      -0.601296       -16.3621
  17   1.0000      -0.532252       -14.4833
  18   1.0000      -0.511282       -13.9127
  19   1.0000      -0.489986       -13.3332
  20   1.0000      -0.486823       -13.2471
  21   1.0000      -0.448789       -12.2122
  22   1.0000      -0.436266       -11.8714
  23   1.0000      -0.423479       -11.5234
  24   1.0000      -0.397791       -10.8244
  25   1.0000      -0.383342       -10.4313
  26   1.0000      -0.370375       -10.0784
  27   1.0000      -0.351849        -9.5743
  28   1.0000      -0.332841        -9.0571
  29   1.0000      -0.276547        -7.5252
  30   1.0000      -0.262595        -7.1456
  31   0.0000      -0.111891        -3.0447
  32   0.0000      -0.062014        -1.6875
  33   0.0000      -0.036694        -0.9985
  34   0.0000       0.005839         0.1589
  35   0.0000       0.018352         0.4994

                 SPIN DOWN ORBITALS
  NO   OCC          E(Eh)            E(eV)
   0   1.0000     -19.082358      -519.2574
   1   1.0000     -10.166834      -276.6536
   2   1.0000     -10.144815      -276.0544
   3   1.0000     -10.102624      -274.9064
   4   1.0000     -10.102084      -274.8917
   5   1.0000     -10.094941      -274.6973
   6   1.0000     -10.090365      -274.5728
   7   1.0000     -10.090252      -274.5697
   8   1.0000     -10.073093      -274.1028
   9   1.0000      -1.136942       -30.9378
  10   1.0000      -0.871902       -23.7257
  11   1.0000      -0.814883       -22.1741
  12   1.0000      -0.766274       -20.8514
  13   1.0000      -0.731947       -19.9173
  14   1.0000      -0.646514       -17.5925
  15   1.0000      -0.610351       -16.6085
  16   1.0000      -0.596189       -16.2231
  17   1.0000      -0.530360       -14.4318
  18   1.0000      -0.506993       -13.7960
  19   1.0000      -0.484965       -13.1966
  20   1.0000      -0.474796       -12.9199
  21   1.0000      -0.447576       -12.1792
  22   1.0000      -0.433954       -11.8085
  23   1.0000      -0.422032       -11.4841
  24   1.0000      -0.395366       -10.7584
  25   1.0000      -0.369028       -10.0418
  26   1.0000      -0.367827       -10.0091
  27   1.0000      -0.350661        -9.5420
  28   1.0000      -0.310354        -8.4452
  29   1.0000      -0.270116        -7.3502
  30   0.0000      -0.221003        -6.0138
  31   0.0000      -0.078296        -2.1305
  32   0.0000      -0.050145        -1.3645
  33   0.0000      -0.010104        -0.2749
  34   0.0000       0.007618         0.2073

MULLIKEN ATOMIC CHARGES AND SPIN POPULATIONS
--------------------------------------------
   0 C :   -0.843473   -0.017098
   1 C :   -0.105094    0.299351
   2 C :   -0.568806   -0.161843
   3 C :   -0.495015    0.242187
   4 C :    1.131228   -0.021316
   5 C :    0.400265    0.110158
   6 O :   -0.479296    0.012541
   7 C :   -0.373098    0.268513
   8 C :   -0.525219    0.198949
   9 H :    0.421932   -0.004178
  10 H :    0.622365    0.017949
  11 H :    0.170156    0.027664
  12 H :    0.640114    0.001416
  13 H :    0.382855    0.024823
  14 H :    0.621085    0.000884
Sum of atomic charges         :    1.0000000

LOEWDIN ATOMIC CHARGES AND SPIN POPULATIONS
-------------------------------------------
   0 C :    0.306481    0.050078
   1 C :    0.281978    0.151848
   2 C :    0.260201    0.018456
   3 C :    0.302090    0.111481
   4 C :   -0.105273    0.079720
   5 C :   -0.320073    0.057110
   6 O :    0.669997    0.057131
   7 C :    0.110886    0.217043
   8 C :    0.346030    0.149799
   9 H :   -0.130514    0.020850
  10 H :   -0.130432    0.037422
  11 H :   -0.140771    0.023787
  12 H :   -0.162120   -0.011192
  13 H :   -0.146211    0.036082
  14 H :   -0.142268    0.000387

  Mayer bond orders larger than 0.100000
B(  0-C ,  1-C ) :   1.0514 B(  0-C ,  2-C ) :   0.3919 B(  0-C ,  4-C ) :   0.1183
B(  0-C ,  5-C ) :   1.2369 B(  0-C , 13-H ) :   0.1081 B(  1-C ,  2-C ) :   1.0723
B(  1-C ,  3-C ) :  -0.3578 B(  1-C ,  5-C ) :  -0.6860 B(  1-C ,  7-C ) :   0.1159
B(  1-C ,  8-C ) :   0.1145 B(  1-C , 12-H ) :   0.1541 B(  1-C , 13-H ) :   0.7608
B(  1-C , 14-H ) :   0.1521 B(  2-C ,  3-C ) :   1.1032 B(  2-C ,  5-C ) :   0.1022
B(  2-C ,  8-C ) :   0.2075 B(  2-C , 12-H ) :   0.1975 B(  3-C ,  4-C ) :   0.6625
B(  3-C ,  5-C ) :  -0.7205 B(  3-C ,  9-H ) :   0.1377 B(  3-C , 11-H ) :   1.2786
B(  3-C , 14-H ) :   0.1053 B(  4-C ,  5-C ) :   1.2189 B(  4-C ,  7-C ) :  -0.3606
B(  4-C ,  8-C ) :   0.5959 B(  4-C , 13-H ) :  -0.1189 B(  5-C ,  6-O ) :   0.4816
B(  5-C ,  8-C ) :   0.2819 B(  5-C , 11-H ) :   0.1610 B(  5-C , 13-H ) :   0.1165
B(  6-O ,  7-C ) :   1.3280 B(  7-C ,  8-C ) :   0.8944 B(  7-C , 10-H ) :   0.4832
B(  8-C ,  9-H ) :   0.7321 B(  8-C , 11-H ) :  -0.1093

Dispersion correction           -0.004584212
FINAL SINGLE POINT ENERGY      -383.398208586100

DIPOLE MOMENT
-------------

Method             : SCF
Type of density    : Electron Density
Multiplicity       :   2
Irrep              :   0
Energy             :  -383.3936243744068975 Eh
Relativity type    :
Basis              : AO
                                X                 Y                 Z
Electronic contribution:     -2.992151223      -1.159823867      -0.007621978
Nuclear contribution   :      2.528739876       1.777319044       0.011417386
                        -----------------------------------------
Total Dipole Moment    :     -0.463411347       0.617495177       0.003795408
                        -----------------------------------------
Magnitude (a.u.)       :      0.772052314
Magnitude (Debye)      :      1.962401027

Rotational constants in cm-1:             0.129879             0.056013             0.039135
Rotational constants in MHz :          3893.673365          1679.240361          1173.249452

                             ****ORCA TERMINATED NORMALLY****
TOTAL RUN TIME: 0 days 0 hours 12 minutes 18 seconds 681 msec
