                         Program Version 6.0.0  -   RELEASE  -
|  1> !PBE0 freq aug-cc-pVTZ d3 TightSCF SlowConv RIJCOSX defgrid2
|  2>
|  3> %pal
|  4> nprocs 12
|  5> end
|  6>
|  7> %scf
|  8> MaxIter 1500
|  9> end
| 10>
| 11> %maxcore 5000
| 12>
| 13> !CPCM
| 14> %cpcm smd true
| 15> SMDsolvent "MeCN"
| 16> surfacetype gepol_ses
| 17> rsolv 2.19
| 18> end
| 19>
| 20> * xyz 1 2
| 21> C           0.95180407472531     -1.31188220048885      0.00151496477388
| 22> C           2.29309799387118     -1.04827708170019     -0.00215887401742
| 23> C           2.73550383708203      0.28284018526247     -0.00234441322542
| 24> C           1.83259767249921      1.35550065681082      0.00096260029575
| 25> C           0.48923956050047      1.10970244875103      0.00345584335718
| 26> C           0.02416461722818     -0.23743361643122      0.00354118565354
| 27> C          -1.34579693296487     -0.54849472428010      0.00354173523106
| 28> N          -2.22583640179954      0.43044966164510     -0.00112088450319
| 29> O          -3.45769864887049     -0.04369310268911     -0.00600794002218
| 30> H          -4.03930672417211      0.73950697062728     -0.00719647504105
| 31> H          -1.68021078799499     -1.58294806394849      0.00623606209930
| 32> H          -0.22797034983280      1.91846133225789      0.00600148234005
| 33> H           2.20496513024084      2.37079548204836      0.00087493117078
| 34> H           3.79916822146812      0.48558749500585     -0.00502811370793
| 35> H           3.01390127096781     -1.85431937982863     -0.00470590669851
| 36> H           0.58007036705165     -2.32842006304221      0.00262440229417
| 37> *
| 38>
| 39>                          ****END OF INPUT****

CARTESIAN COORDINATES (ANGSTROEM)
---------------------------------
  C      0.951804   -1.311882    0.001515
  C      2.293098   -1.048277   -0.002159
  C      2.735504    0.282840   -0.002344
  C      1.832598    1.355501    0.000963
  C      0.489240    1.109702    0.003456
  C      0.024165   -0.237434    0.003541
  C     -1.345797   -0.548495    0.003542
  N     -2.225836    0.430450   -0.001121
  O     -3.457699   -0.043693   -0.006008
  H     -4.039307    0.739507   -0.007196
  H     -1.680211   -1.582948    0.006236
  H     -0.227970    1.918461    0.006001
  H      2.204965    2.370795    0.000875
  H      3.799168    0.485587   -0.005028
  H      3.013901   -1.854319   -0.004706
  H      0.580070   -2.328420    0.002624

 Total Charge           Charge          ....    1
 Multiplicity           Mult            ....    2
 Number of Electrons    NEL             ....   63
 Basis Dimension        Dim             ....  575

ORBITAL ENERGIES
----------------
                 SPIN UP ORBITALS
  NO   OCC          E(Eh)            E(eV)
   0   1.0000     -19.340006      -526.2683
   1   1.0000     -14.518667      -395.0730
   2   1.0000     -10.321313      -280.8572
   3   1.0000     -10.305363      -280.4232
   4   1.0000     -10.290272      -280.0125
   5   1.0000     -10.280197      -279.7384
   6   1.0000     -10.279116      -279.7090
   7   1.0000     -10.265629      -279.3420
   8   1.0000     -10.263560      -279.2857
   9   1.0000      -1.225425       -33.3455
  10   1.0000      -0.966724       -26.3059
  11   1.0000      -0.923262       -25.1232
  12   1.0000      -0.829945       -22.5839
  13   1.0000      -0.817493       -22.2451
  14   1.0000      -0.717786       -19.5320
  15   1.0000      -0.672196       -18.2914
  16   1.0000      -0.638299       -17.3690
  17   1.0000      -0.606863       -16.5136
  18   1.0000      -0.578295       -15.7362
  19   1.0000      -0.542757       -14.7692
  20   1.0000      -0.532659       -14.4944
  21   1.0000      -0.512509       -13.9461
  22   1.0000      -0.492474       -13.4009
  23   1.0000      -0.474179       -12.9031
  24   1.0000      -0.467756       -12.7283
  25   1.0000      -0.444455       -12.0942
  26   1.0000      -0.403112       -10.9692
  27   1.0000      -0.391387       -10.6502
  28   1.0000      -0.370459       -10.0807
  29   1.0000      -0.355835        -9.6828
  30   1.0000      -0.312742        -8.5101
  31   1.0000      -0.298859        -8.1324
  32   0.0000      -0.110958        -3.0193
  33   0.0000      -0.041798        -1.1374
  34   0.0000      -0.005736        -0.1561
  35   0.0000      -0.002562        -0.0697
  36   0.0000       0.004834         0.1316

                 SPIN DOWN ORBITALS
  NO   OCC          E(Eh)            E(eV)
   0   1.0000     -19.333429      -526.0894
   1   1.0000     -14.511045      -394.8656
   2   1.0000     -10.322063      -280.8776
   3   1.0000     -10.302604      -280.3481
   4   1.0000     -10.286022      -279.8969
   5   1.0000     -10.278454      -279.6910
   6   1.0000     -10.277999      -279.6786
   7   1.0000     -10.266177      -279.3569
   8   1.0000     -10.264521      -279.3118
   9   1.0000      -1.211274       -32.9604
  10   1.0000      -0.955914       -26.0117
  11   1.0000      -0.913641       -24.8614
  12   1.0000      -0.820892       -22.3376
  13   1.0000      -0.814078       -22.1522
  14   1.0000      -0.712650       -19.3922
  15   1.0000      -0.669049       -18.2057
  16   1.0000      -0.633753       -17.2453
  17   1.0000      -0.601090       -16.3565
  18   1.0000      -0.575433       -15.6583
  19   1.0000      -0.539141       -14.6708
  20   1.0000      -0.510186       -13.8829
  21   1.0000      -0.491131       -13.3643
  22   1.0000      -0.489821       -13.3287
  23   1.0000      -0.473615       -12.8877
  24   1.0000      -0.465366       -12.6633
  25   1.0000      -0.423247       -11.5171
  26   1.0000      -0.402164       -10.9434
  27   1.0000      -0.389199       -10.5907
  28   1.0000      -0.348227        -9.4757
  29   1.0000      -0.338596        -9.2137
  30   1.0000      -0.308887        -8.4052
  31   0.0000      -0.204729        -5.5710
  32   0.0000      -0.079709        -2.1690
  33   0.0000      -0.032284        -0.8785
  34   0.0000      -0.001953        -0.0531
  35   0.0000       0.005556         0.1512

MULLIKEN ATOMIC CHARGES AND SPIN POPULATIONS
--------------------------------------------
   0 C :   -0.786616    0.043809
   1 C :   -0.620416   -0.023106
   2 C :   -0.247298    0.257045
   3 C :   -0.802231   -0.058716
   4 C :   -0.669589    0.089951
   5 C :    1.385419    0.215364
   6 C :    0.138882   -0.035256
   7 N :   -0.331150    0.322025
   8 O :   -0.206870    0.206557
   9 H :    0.227083   -0.008077
  10 H :    0.520424    0.003907
  11 H :    0.233419   -0.010203
  12 H :    0.706919    0.003306
  13 H :    0.574264   -0.001718
  14 H :    0.700769    0.003267
  15 H :    0.176990   -0.008155
Sum of atomic charges         :    1.0000000

LOEWDIN ATOMIC CHARGES AND SPIN POPULATIONS
-------------------------------------------
   0 C :    0.269066    0.058317
   1 C :    0.270122    0.038909
   2 C :    0.285597    0.134130
   3 C :    0.266043    0.031047
   4 C :    0.261615    0.071660
   5 C :   -0.108282    0.111210
   6 C :    0.088286    0.053160
   7 N :    0.214756    0.247738
   8 O :    0.758289    0.203400
   9 H :   -0.418504    0.013342
  10 H :   -0.143205   -0.006179
  11 H :   -0.166375    0.009769
  12 H :   -0.150677   -0.004132
  13 H :   -0.136553    0.030965
  14 H :   -0.149239   -0.001253
  15 H :   -0.140941    0.007918

  Mayer bond orders larger than 0.100000
B(  0-C ,  1-C ) :   1.4057 B(  0-C ,  2-C ) :  -0.1167 B(  0-C ,  4-C ) :  -0.3656
B(  0-C ,  5-C ) :   0.3590 B(  0-C ,  6-C ) :  -0.1056 B(  0-C , 14-H ) :  -0.1700
B(  0-C , 15-H ) :   1.3809 B(  1-C ,  2-C ) :   1.3238 B(  1-C ,  3-C ) :   0.1459
B(  1-C , 14-H ) :   0.2476 B(  2-C ,  3-C ) :   1.2810 B(  2-C ,  4-C ) :  -0.1651
B(  2-C ,  5-C ) :  -0.1821 B(  2-C ,  6-C ) :   0.1447 B(  2-C , 12-H ) :   0.1226
B(  2-C , 13-H ) :   0.4902 B(  3-C ,  4-C ) :   1.4145 B(  3-C , 12-H ) :   0.2098
B(  4-C ,  5-C ) :   0.5822 B(  4-C ,  6-C ) :   0.1174 B(  4-C , 11-H ) :   1.0546
B(  4-C , 15-H ) :   0.1087 B(  5-C ,  6-C ) :   0.5512 B(  5-C ,  7-N ) :  -0.1016
B(  5-C , 14-H ) :   0.1049 B(  6-C ,  7-N ) :   0.8327 B(  6-C , 10-H ) :   0.5095
B(  6-C , 15-H ) :  -0.1726 B(  7-N ,  8-O ) :   0.8067 B(  7-N , 10-H ) :  -0.1037
B(  8-O ,  9-H ) :   0.9755 B( 11-H , 15-H ) :   0.1493

Dispersion correction           -0.013946201
FINAL SINGLE POINT ENERGY      -400.355002576385

DIPOLE MOMENT
-------------

Method             : SCF
Type of density    : Electron Density
Multiplicity       :   2
Irrep              :   0
Energy             :  -400.3410563751979794 Eh
Relativity type    :
Basis              : AO
                                X                 Y                 Z
Electronic contribution:     -3.338849978       0.144534639       0.001351815
Nuclear contribution   :      3.305684800      -0.250170310      -0.000628945
                        -----------------------------------------
Total Dipole Moment    :     -0.033165178      -0.105635671       0.000722870
                        -----------------------------------------
Magnitude (a.u.)       :      0.110721934
Magnitude (Debye)      :      0.281432790

VIBRATIONAL FREQUENCIES
-----------------------

Scaling factor for frequencies =  1.000000000  (already applied!)

     0:       0.00 cm**-1
     1:       0.00 cm**-1
     2:       0.00 cm**-1
     3:       0.00 cm**-1
     4:       0.00 cm**-1
     5:       0.00 cm**-1
     6:      75.83 cm**-1
     7:     139.81 cm**-1
     8:     172.14 cm**-1
     9:     243.30 cm**-1
    10:     373.91 cm**-1
    11:     387.41 cm**-1
    12:     434.48 cm**-1
    13:     441.25 cm**-1
    14:     569.23 cm**-1
    15:     583.00 cm**-1
    16:     625.96 cm**-1
    17:     643.58 cm**-1
    18:     791.94 cm**-1
    19:     818.81 cm**-1
    20:     881.00 cm**-1
    21:     958.49 cm**-1
    22:     987.19 cm**-1
    23:    1005.55 cm**-1
    24:    1015.23 cm**-1
    25:    1019.48 cm**-1
    26:    1032.25 cm**-1
    27:    1105.60 cm**-1
    28:    1152.64 cm**-1
    29:    1168.00 cm**-1
    30:    1179.56 cm**-1
    31:    1253.29 cm**-1
    32:    1285.58 cm**-1
    33:    1340.19 cm**-1
    34:    1412.44 cm**-1
    35:    1451.30 cm**-1
    36:    1464.07 cm**-1
    37:    1523.56 cm**-1
    38:    1532.72 cm**-1
    39:    1552.91 cm**-1
    40:    1672.43 cm**-1
    41:    3167.77 cm**-1
    42:    3211.14 cm**-1
    43:    3215.42 cm**-1
    44:    3224.56 cm**-1
    45:    3232.96 cm**-1
    46:    3238.07 cm**-1
    47:    3603.70 cm**-1

IR SPECTRUM
-----------

 Mode   freq       eps      Int      T**2         TX        TY        TZ
       cm**-1   L/(mol*cm) km/mol    a.u.
----------------------------------------------------------------------------
  6:     75.83   0.000163    0.82  0.000671  (-0.002287  0.000153 -0.025802)
  7:    139.81   0.000180    0.91  0.000402  (-0.006128  0.019040  0.001382)
  8:    172.14   0.000082    0.41  0.000148  (-0.000714  0.001175 -0.012099)
  9:    243.30   0.000114    0.58  0.000147  (-0.003219 -0.000551  0.011660)
 10:    373.91   0.000054    0.27  0.000045  (-0.000801 -0.000676  0.006652)
 11:    387.41   0.001172    5.92  0.000944  ( 0.029079  0.009859 -0.001016)
 12:    434.48   0.000493    2.49  0.000354  (-0.002591 -0.000720  0.018632)
 13:    441.25   0.001252    6.33  0.000885  (-0.028261 -0.009017  0.002280)
 14:    569.23   0.047897  242.05  0.026258  ( 0.005083  0.001155 -0.161959)
 15:    583.00   0.000907    4.58  0.000486  ( 0.012022  0.018435  0.001112)
 16:    625.96   0.003111   15.72  0.001551  (-0.003396  0.000130 -0.039236)
 17:    643.58   0.022100  111.68  0.010716  ( 0.102700  0.012831  0.002017)
 18:    791.94   0.011231   56.76  0.004425  ( 0.000411 -0.000299  0.066522)
 19:    818.81   0.000018    0.09  0.000007  ( 0.000037  0.000302  0.002592)
 20:    881.00   0.000496    2.51  0.000176  (-0.006458  0.011579  0.000135)
 21:    958.49   0.000338    1.71  0.000110  (-0.002043  0.000251  0.010292)
 22:    987.19   0.002109   10.66  0.000667  (-0.000819 -0.000496  0.025805)
 23:   1005.55   0.005163   26.09  0.001602  (-0.039826 -0.004017 -0.000104)
 24:   1015.23   0.000050    0.25  0.000015  (-0.001325 -0.000620  0.003630)
 25:   1019.48   0.006350   32.09  0.001944  ( 0.044054  0.001765  0.000123)
 26:   1032.25   0.000284    1.43  0.000086  ( 0.000819 -0.000163  0.009224)
 27:   1105.60   0.007176   36.27  0.002026  ( 0.021004 -0.039804 -0.000067)
 28:   1152.64   0.019610   99.10  0.005309  ( 0.070592  0.018051  0.000215)
 29:   1168.00   0.128646  650.12  0.034371  ( 0.184759 -0.015330  0.000452)
 30:   1179.56   0.000805    4.07  0.000213  ( 0.011678  0.008758  0.000031)
 31:   1253.29   0.045016  227.49  0.011209  (-0.097904 -0.040292 -0.000195)
 32:   1285.58   0.136624  690.44  0.033164  ( 0.181918  0.008340  0.000654)
 33:   1340.19   0.008445   42.68  0.001966  ( 0.040490  0.018080  0.000273)
 34:   1412.44   0.004362   22.05  0.000964  ( 0.004571  0.030707  0.000024)
 35:   1451.30   0.016615   83.96  0.003573  ( 0.018105 -0.056963  0.000256)
 36:   1464.07   0.005583   28.21  0.001190  ( 0.017241 -0.029873 -0.000553)
 37:   1523.56   0.032622  164.86  0.006682  ( 0.081669 -0.003454 -0.000309)
 38:   1532.72   0.085227  430.70  0.017352  ( 0.131498  0.007780  0.000083)
 39:   1552.91   0.002206   11.15  0.000443  (-0.000124 -0.021053 -0.000008)
 40:   1672.43   0.057998  293.10  0.010822  ( 0.103149  0.013507 -0.000048)
 41:   3167.77   0.000492    2.49  0.000048  ( 0.006552 -0.002352  0.000107)
 42:   3211.14   0.000197    1.00  0.000019  ( 0.004311  0.000748 -0.000100)
 43:   3215.42   0.000246    1.24  0.000024  (-0.004671  0.001439 -0.000089)
 44:   3224.56   0.000253    1.28  0.000025  ( 0.001841  0.004595  0.000121)
 45:   3232.96   0.000407    2.05  0.000039  ( 0.006239  0.000566 -0.000041)
 46:   3238.07   0.001685    8.51  0.000162  (-0.012532  0.002305 -0.000039)
 47:   3603.70   0.293726  1484.37  0.025435  ( 0.152233 -0.047544  0.000262)

--------------------------
THERMOCHEMISTRY AT 298.15K
--------------------------

Temperature         ...   298.15 K
Pressure            ...     1.00 atm
Total Mass          ...   121.14 AMU
Quasi RRHO          ...     True
Cut-Off Frequency   ...     1.00 cm^-1

Throughout the following assumptions are being made:
  (1) The electronic state is orbitally nondegenerate
      but the spin degeneracy is treated
  (2) There are no thermally accessible electronically excited states
  (3) Hindered rotations indicated by low frequency modes are not
      treated as such but are treated as vibrations and this may
      cause some error
  (4) All equations used are the standard statistical mechanics
      equations for an ideal gas
  (5) All vibrations are strictly harmonic

freq.      75.83  E(vib)   ...       0.49
freq.     139.81  E(vib)   ...       0.41
freq.     172.14  E(vib)   ...       0.38
freq.     243.30  E(vib)   ...       0.31
freq.     373.91  E(vib)   ...       0.21
freq.     387.41  E(vib)   ...       0.20
freq.     434.48  E(vib)   ...       0.17
freq.     441.25  E(vib)   ...       0.17
freq.     569.23  E(vib)   ...       0.11
freq.     583.00  E(vib)   ...       0.11
freq.     625.96  E(vib)   ...       0.09
freq.     643.58  E(vib)   ...       0.09
freq.     791.94  E(vib)   ...       0.05
freq.     818.81  E(vib)   ...       0.05
freq.     881.00  E(vib)   ...       0.04
freq.     958.49  E(vib)   ...       0.03
freq.     987.19  E(vib)   ...       0.02
freq.    1005.55  E(vib)   ...       0.02
freq.    1015.23  E(vib)   ...       0.02
freq.    1019.48  E(vib)   ...       0.02
freq.    1032.25  E(vib)   ...       0.02
freq.    1105.60  E(vib)   ...       0.02
freq.    1152.64  E(vib)   ...       0.01
freq.    1168.00  E(vib)   ...       0.01
freq.    1179.56  E(vib)   ...       0.01
freq.    1253.29  E(vib)   ...       0.01
freq.    1285.58  E(vib)   ...       0.01
freq.    1340.19  E(vib)   ...       0.01
freq.    1412.44  E(vib)   ...       0.00
freq.    1451.30  E(vib)   ...       0.00
freq.    1464.07  E(vib)   ...       0.00
freq.    1523.56  E(vib)   ...       0.00
freq.    1532.72  E(vib)   ...       0.00
freq.    1552.91  E(vib)   ...       0.00
freq.    1672.43  E(vib)   ...       0.00
freq.    3167.77  E(vib)   ...       0.00
freq.    3211.14  E(vib)   ...       0.00
freq.    3215.42  E(vib)   ...       0.00
freq.    3224.56  E(vib)   ...       0.00
freq.    3232.96  E(vib)   ...       0.00
freq.    3238.07  E(vib)   ...       0.00
freq.    3603.70  E(vib)   ...       0.00

------------
INNER ENERGY
------------

The inner energy is: U= E(el) + E(ZPE) + E(vib) + E(rot) + E(trans)
    E(el)   - is the total energy from the electronic structure calculation
              = E(kin-el) + E(nuc-el) + E(el-el) + E(nuc-nuc)
    E(ZPE)  - the the zero temperature vibrational energy from the frequency calculation
    E(vib)  - the the finite temperature correction to E(ZPE) due to population
              of excited vibrational states
    E(rot)  - is the rotational thermal energy
    E(trans)- is the translational thermal energy

Summary of contributions to the inner energy U:
Electronic energy                ...   -400.35500258 Eh
Zero point energy                ...      0.12572696 Eh      78.89 kcal/mol
Thermal vibrational correction   ...      0.00496410 Eh       3.12 kcal/mol
Thermal rotational correction    ...      0.00141627 Eh       0.89 kcal/mol
Thermal translational correction ...      0.00141627 Eh       0.89 kcal/mol
-----------------------------------------------------------------------
Total thermal energy                   -400.22147897 Eh

Summary of corrections to the electronic energy:
(perhaps to be used in another calculation)
Total thermal correction                  0.00779664 Eh       4.89 kcal/mol
Non-thermal (ZPE) correction              0.12572696 Eh      78.89 kcal/mol
-----------------------------------------------------------------------
Total correction                          0.13352360 Eh      83.79 kcal/mol

--------
ENTHALPY
--------

The enthalpy is H = U + kB*T
                kB is Boltzmann's constant
Total thermal energy              ...   -400.22147897 Eh
Thermal Enthalpy correction       ...      0.00094421 Eh       0.59 kcal/mol
-----------------------------------------------------------------------
Total Enthalpy                    ...   -400.22053476 Eh

Note: Only C1 symmetry has been detected, increase convergence thresholds
      if your molecule has a higher symmetry. Symmetry factor of 1.0 is
      used for the rotational entropy correction.

Note: Rotational entropy computed according to Herzberg
Infrared and Raman Spectra, Chapter V,1, Van Nostrand Reinhold, 1945
Point Group:  C1, Symmetry Number:   1
Rotational constants in cm-1:     0.168196     0.031343     0.026420

Vibrational entropy computed according to the QRRHO of S. Grimme
Chem.Eur.J. 2012 18 9955 using a reference frequency of 100.0 cm-1

-------
ENTROPY
-------

The entropy contributions are T*S = T*(S(el)+S(vib)+S(rot)+S(trans))
     S(el)   - electronic entropy
     S(vib)  - vibrational entropy
     S(rot)  - rotational entropy
     S(trans)- translational entropy
The entropies will be listed as multiplied by the temperature to get
units of energy

Electronic entropy                ...      0.00065446 Eh      0.41 kcal/mol
Vibrational entropy               ...      0.00821355 Eh      5.15 kcal/mol
Rotational entropy                ...      0.01370253 Eh      8.60 kcal/mol
Translational entropy             ...      0.01914284 Eh     12.01 kcal/mol
-----------------------------------------------------------------------
Final entropy term                ...      0.04171337 Eh     26.18 kcal/mol

In case the symmetry of your molecule has not been determined correctly
or in case you have a reason to use a different symmetry number we print
out the resulting rotational entropy values for sn=1,12:

 non-linear molecules -----------------------------------
|  sn= 1 | S(rot)=       0.01370253 Eh      8.60 kcal/mol|
|  sn= 2 | S(rot)=       0.01304807 Eh      8.19 kcal/mol|
|  sn= 3 | S(rot)=       0.01266524 Eh      7.95 kcal/mol|
|  sn= 4 | S(rot)=       0.01239361 Eh      7.78 kcal/mol|
|  sn= 5 | S(rot)=       0.01218292 Eh      7.64 kcal/mol|
|  sn= 6 | S(rot)=       0.01201078 Eh      7.54 kcal/mol|
|  sn= 7 | S(rot)=       0.01186523 Eh      7.45 kcal/mol|
|  sn= 8 | S(rot)=       0.01173916 Eh      7.37 kcal/mol|
|  sn= 9 | S(rot)=       0.01162795 Eh      7.30 kcal/mol|
|  sn=10 | S(rot)=       0.01152847 Eh      7.23 kcal/mol|
|  sn=11 | S(rot)=       0.01143848 Eh      7.18 kcal/mol|
|  sn=12 | S(rot)=       0.01135632 Eh      7.13 kcal/mol|
 linear molecules ---------------------------------------
|  Dinfh | S(rot)=       0.00875663 Eh      5.49 kcal/mol|
|  Cinfv | S(rot)=       0.00941109 Eh      5.91 kcal/mol|
 --------------------------------------------------------

                             ****ORCA TERMINATED NORMALLY****
TOTAL RUN TIME: 0 days 0 hours 36 minutes 51 seconds 897 msec
