                         Program Version 6.0.0  -   RELEASE  -
|  1> !r2SCANh aug-cc-pVTZ d3 TightSCF SlowConv RIJCOSX defgrid2
|  2>
|  3> %pal
|  4> nprocs 4
|  5> end
|  6>
|  7> %scf
|  8> MaxIter 1500
|  9> end
| 10>
| 11> %maxcore 3000
| 12>
| 13> !CPCM
| 14> %cpcm smd true
| 15> SMDsolvent "MeCN"
| 16> surfacetype gepol_ses
| 17> rsolv 2.19
| 18> end
| 19>
| 20> * xyz 1 2
| 21> C          -0.91447665052191     -0.47212024963727      0.00305742174444
| 22> C          -2.18959675934569      0.11971421337046      0.01409102309685
| 23> C          -2.29388700864009      1.49579494614513      0.03719397935039
| 24> C          -1.14208865599825      2.32820910625960      0.04995116881801
| 25> C           0.10947335768495      1.76881259512950      0.03960538148135
| 26> C           0.28212991065801      0.35726166855364      0.01600485453252
| 27> C           1.54760711026767     -0.28724291022231      0.00423169337063
| 28> C           2.77332093532235      0.34213760096678      0.01571595747138
| 29> C           4.06622172347746     -0.36316154066438      0.00304916339958
| 30> H           3.96002045066298     -1.45844987469069     -0.01793750531576
| 31> H           4.66637612050733     -0.03672280648830     -0.86953860101039
| 32> H           4.66526755704250     -0.07044112617912      0.88830060381995
| 33> H           2.81784562071465      1.43840343521638      0.03577451797111
| 34> H           1.53655051969215     -1.38139322639124     -0.01527207677871
| 35> H           0.98749423584764      2.41741461359963      0.04936131634716
| 36> H          -1.26152864583437      3.41417242331339      0.06788229194881
| 37> H          -3.28641699296290      1.95584755491465      0.04577091193408
| 38> H          -3.08960840973113     -0.49602884724601      0.00463129800869
| 39> O          -0.70644499866046     -1.76403981031241     -0.01892493742312
| 40> C          -1.78404812347373     -2.69340134662684     -0.03465822668874
| 41> H          -2.39834499922984     -2.55118103918316     -0.93925561775505
| 42> H          -2.39845270509497     -2.58207749303523      0.87418511117935
| 43> H          -1.31890279238437     -3.68732048679220     -0.05153622950254
| 44> *
| 45>
| 46>                          ****END OF INPUT****

CARTESIAN COORDINATES (ANGSTROEM)
---------------------------------
  C     -0.914477   -0.472120    0.003057
  C     -2.189597    0.119714    0.014091
  C     -2.293887    1.495795    0.037194
  C     -1.142089    2.328209    0.049951
  C      0.109473    1.768813    0.039605
  C      0.282130    0.357262    0.016005
  C      1.547607   -0.287243    0.004232
  C      2.773321    0.342138    0.015716
  C      4.066222   -0.363162    0.003049
  H      3.960020   -1.458450   -0.017938
  H      4.666376   -0.036723   -0.869539
  H      4.665268   -0.070441    0.888301
  H      2.817846    1.438403    0.035775
  H      1.536551   -1.381393   -0.015272
  H      0.987494    2.417415    0.049361
  H     -1.261529    3.414172    0.067882
  H     -3.286417    1.955848    0.045771
  H     -3.089608   -0.496029    0.004631
  O     -0.706445   -1.764040   -0.018925
  C     -1.784048   -2.693401   -0.034658
  H     -2.398345   -2.551181   -0.939256
  H     -2.398453   -2.582077    0.874185
  H     -1.318903   -3.687320   -0.051536

 Total Charge           Charge          ....    1
 Multiplicity           Mult            ....    2
 Number of Electrons    NEL             ....   79
 Basis Dimension        Dim             ....  782

ORBITAL ENERGIES
----------------
                 SPIN UP ORBITALS
  NO   OCC          E(Eh)            E(eV)
   0   1.0000     -19.206697      -522.6408
   1   1.0000     -10.280857      -279.7564
   2   1.0000     -10.227719      -278.3104
   3   1.0000     -10.221484      -278.1407
   4   1.0000     -10.219869      -278.0968
   5   1.0000     -10.208149      -277.7779
   6   1.0000     -10.202845      -277.6335
   7   1.0000     -10.195215      -277.4259
   8   1.0000     -10.192928      -277.3637
   9   1.0000     -10.187869      -277.2260
  10   1.0000     -10.166399      -276.6418
  11   1.0000      -1.136896       -30.9365
  12   1.0000      -0.899616       -24.4798
  13   1.0000      -0.843958       -22.9653
  14   1.0000      -0.796469       -21.6730
  15   1.0000      -0.783939       -21.3321
  16   1.0000      -0.729961       -19.8633
  17   1.0000      -0.703292       -19.1375
  18   1.0000      -0.646246       -17.5853
  19   1.0000      -0.613567       -16.6960
  20   1.0000      -0.575735       -15.6665
  21   1.0000      -0.556833       -15.1522
  22   1.0000      -0.521103       -14.1799
  23   1.0000      -0.507357       -13.8059
  24   1.0000      -0.501226       -13.6390
  25   1.0000      -0.468636       -12.7522
  26   1.0000      -0.456078       -12.4105
  27   1.0000      -0.441020       -12.0008
  28   1.0000      -0.427880       -11.6432
  29   1.0000      -0.425288       -11.5727
  30   1.0000      -0.411025       -11.1846
  31   1.0000      -0.401902       -10.9363
  32   1.0000      -0.384261       -10.4563
  33   1.0000      -0.379811       -10.3352
  34   1.0000      -0.357566        -9.7299
  35   1.0000      -0.356194        -9.6925
  36   1.0000      -0.342005        -9.3064
  37   1.0000      -0.334698        -9.1076
  38   1.0000      -0.270520        -7.3612
  39   1.0000      -0.249383        -6.7860
  40   0.0000      -0.102444        -2.7876
  41   0.0000      -0.045138        -1.2283
  42   0.0000      -0.005527        -0.1504
  43   0.0000       0.006670         0.1815
  44   0.0000       0.017642         0.4801

                 SPIN DOWN ORBITALS
  NO   OCC          E(Eh)            E(eV)
   0   1.0000     -19.202513      -522.5269
   1   1.0000     -10.278241      -279.6852
   2   1.0000     -10.223968      -278.2083
   3   1.0000     -10.220011      -278.1006
   4   1.0000     -10.214466      -277.9498
   5   1.0000     -10.205272      -277.6996
   6   1.0000     -10.203315      -277.6463
   7   1.0000     -10.195828      -277.4426
   8   1.0000     -10.191540      -277.3259
   9   1.0000     -10.189066      -277.2586
  10   1.0000     -10.166654      -276.6487
  11   1.0000      -1.130264       -30.7560
  12   1.0000      -0.892407       -24.2836
  13   1.0000      -0.834896       -22.7187
  14   1.0000      -0.788314       -21.4511
  15   1.0000      -0.780313       -21.2334
  16   1.0000      -0.729089       -19.8395
  17   1.0000      -0.698340       -19.0028
  18   1.0000      -0.640164       -17.4198
  19   1.0000      -0.609442       -16.5838
  20   1.0000      -0.570171       -15.5151
  21   1.0000      -0.554822       -15.0975
  22   1.0000      -0.519505       -14.1365
  23   1.0000      -0.505139       -13.7455
  24   1.0000      -0.487919       -13.2769
  25   1.0000      -0.466580       -12.6963
  26   1.0000      -0.454602       -12.3704
  27   1.0000      -0.439834       -11.9685
  28   1.0000      -0.423556       -11.5255
  29   1.0000      -0.413138       -11.2421
  30   1.0000      -0.399983       -10.8841
  31   1.0000      -0.398527       -10.8445
  32   1.0000      -0.383125       -10.4254
  33   1.0000      -0.378450       -10.2981
  34   1.0000      -0.354409        -9.6439
  35   1.0000      -0.344988        -9.3876
  36   1.0000      -0.339963        -9.2509
  37   1.0000      -0.317084        -8.6283
  38   1.0000      -0.261949        -7.1280
  39   0.0000      -0.190606        -5.1866
  40   0.0000      -0.072571        -1.9747
  41   0.0000      -0.029830        -0.8117
  42   0.0000       0.007654         0.2083
  43   0.0000       0.015638         0.4255

MULLIKEN ATOMIC CHARGES AND SPIN POPULATIONS
--------------------------------------------
   0 C :    0.747717    0.165841
   1 C :   -0.613036   -0.119355
   2 C :   -0.191822    0.168230
   3 C :   -0.650946    0.090296
   4 C :   -0.559621   -0.068331
   5 C :    1.470940    0.270701
   6 C :    0.229870   -0.028774
   7 C :   -0.238634    0.340420
   8 C :   -0.824486   -0.048888
   9 H :    0.263742   -0.008534
  10 H :    0.191318    0.036654
  11 H :    0.192463    0.036770
  12 H :    0.260027    0.033513
  13 H :    0.103038    0.003370
  14 H :   -0.138484   -0.004812
  15 H :    0.592512   -0.002250
  16 H :    0.317184    0.011686
  17 H :    0.511306    0.005920
  18 O :   -0.806546    0.118746
  19 C :   -0.739910   -0.014480
  20 H :    0.321462    0.007174
  21 H :    0.321910    0.007203
  22 H :    0.239994   -0.001101
Sum of atomic charges         :    1.0000000

LOEWDIN ATOMIC CHARGES AND SPIN POPULATIONS
-------------------------------------------
   0 C :   -0.326745    0.110352
   1 C :    0.256884    0.016642
   2 C :    0.254740    0.094350
   3 C :    0.253932    0.067213
   4 C :    0.248195    0.023884
   5 C :   -0.064547    0.124689
   6 C :    0.270889    0.080342
   7 C :    0.292402    0.206259
   8 C :    0.607286    0.066136
   9 H :   -0.156651    0.001126
  10 H :   -0.141692    0.014685
  11 H :   -0.141676    0.014712
  12 H :   -0.152421    0.036809
  13 H :   -0.185203   -0.000200
  14 H :   -0.166176   -0.004372
  15 H :   -0.150342    0.010803
  16 H :   -0.140303    0.019212
  17 H :   -0.170020   -0.005905
  18 O :    0.642705    0.105967
  19 C :    0.418988    0.011165
  20 H :   -0.147345    0.003199
  21 H :   -0.147387    0.003195
  22 H :   -0.155509   -0.000263

  Mayer bond orders larger than 0.100000
B(  0-C ,  1-C ) :   1.2349 B(  0-C ,  2-C ) :  -0.4383 B(  0-C ,  3-C ) :   0.1005
B(  0-C ,  4-C ) :  -0.9983 B(  0-C ,  5-C ) :   0.4640 B(  0-C ,  7-C ) :   0.2350
B(  0-C , 14-H ) :   0.1415 B(  0-C , 16-H ) :   0.3118 B(  0-C , 17-H ) :  -0.2100
B(  0-C , 18-O ) :   0.6362 B(  1-C ,  2-C ) :   0.7394 B(  1-C ,  3-C ) :   0.3471
B(  1-C ,  4-C ) :  -0.1994 B(  1-C ,  5-C ) :   0.1497 B(  1-C ,  6-C ) :   0.1039
B(  1-C , 14-H ) :  -0.1705 B(  1-C , 17-H ) :   0.2607 B(  1-C , 18-O ) :  -0.1803
B(  1-C , 19-C ) :  -0.1159 B(  2-C ,  3-C ) :   0.9363 B(  2-C ,  4-C ) :  -0.1954
B(  2-C ,  5-C ) :  -0.1628 B(  2-C ,  6-C ) :   0.1408 B(  2-C , 15-H ) :   0.1059
B(  2-C , 16-H ) :   0.9003 B(  2-C , 17-H ) :   0.2534 B(  3-C ,  4-C ) :   0.9827
B(  3-C ,  5-C ) :   0.1773 B(  3-C ,  7-C ) :  -0.1098 B(  3-C , 14-H ) :  -0.2229
B(  3-C , 15-H ) :   0.2742 B(  3-C , 16-H ) :  -0.1113 B(  3-C , 17-H ) :  -0.1728
B(  4-C ,  5-C ) :   0.4989 B(  4-C , 14-H ) :   1.8439 B(  4-C , 17-H ) :   0.1771
B(  5-C ,  6-C ) :   0.2118 B(  5-C , 12-H ) :  -0.1116 B(  5-C , 14-H ) :  -0.1933
B(  5-C , 16-H ) :  -0.1978 B(  5-C , 17-H ) :   0.1215 B(  6-C ,  7-C ) :   0.4006
B(  6-C , 13-H ) :   1.1470 B(  6-C , 14-H ) :  -0.1008 B(  7-C ,  8-C ) :   0.5977
B(  7-C , 12-H ) :   1.2078 B(  7-C , 13-H ) :  -0.1396 B(  8-C ,  9-H ) :   0.9340
B(  8-C , 10-H ) :   1.0412 B(  8-C , 11-H ) :   1.0394 B(  8-C , 12-H ) :  -0.2129
B( 14-H , 16-H ) :   0.1355 B( 14-H , 17-H ) :  -0.1283 B( 14-H , 18-O ) :   0.1080
B( 17-H , 19-C ) :  -0.1344 B( 18-O , 19-C ) :   1.1260 B( 19-C , 20-H ) :   0.8638
B( 19-C , 21-H ) :   0.8630 B( 19-C , 22-H ) :   0.9986

Dispersion correction           -0.007455369
FINAL SINGLE POINT ENERGY      -463.181848573959

DIPOLE MOMENT
-------------

Method             : SCF
Type of density    : Electron Density
Multiplicity       :   2
Irrep              :   0
Energy             :  -463.1743932047282328 Eh
Relativity type    :
Basis              : AO
                                X                 Y                 Z
Electronic contribution:     -4.564996529       2.849665675       0.049980120
Nuclear contribution   :      4.638279725      -2.868122594      -0.050338921
                        -----------------------------------------
Total Dipole Moment    :      0.073283196      -0.018456919      -0.000358801
                        -----------------------------------------
Magnitude (a.u.)       :      0.075572571
Magnitude (Debye)      :      0.192090209

Rotational constants in cm-1:             0.050628             0.027043             0.017747
Rotational constants in MHz :          1517.785345           810.742847           532.038071

                             ****ORCA TERMINATED NORMALLY****
TOTAL RUN TIME: 0 days 0 hours 15 minutes 52 seconds 600 msec
