                         Program Version 6.0.0  -   RELEASE  -
|  1> !r2SCAN freq aug-cc-pVTZ d3 TightSCF SlowConv RIJCOSX defgrid2
|  2>
|  3> %pal
|  4> nprocs 12
|  5> end
|  6>
|  7> %scf
|  8> MaxIter 1500
|  9> end
| 10>
| 11> %maxcore 5000
| 12>
| 13> !CPCM
| 14> %cpcm smd true
| 15> SMDsolvent "MeCN"
| 16> surfacetype gepol_ses
| 17> rsolv 2.19
| 18> end
| 19>
| 20> * xyz 0 1
| 21> C          -0.72850981669734     -1.02411555820566      0.00103415636179
| 22> C          -1.30899177176577      0.24728311460359      0.00088964486364
| 23> C          -0.49258287867448      1.38506863455461      0.00031220345526
| 24> C           0.88103236137250      1.25550812167684     -0.00012398211448
| 25> C           1.48182905750061     -0.01681516546192      0.00009034972118
| 26> C           0.65366236842226     -1.14658679505165      0.00070008191925
| 27> H           1.09909462333247     -2.13395623068591      0.00042452231110
| 28> C           2.89461146748161     -0.15115881100814     -0.00085910177982
| 29> C           4.09745750068334     -0.26378636057780      0.00024863322368
| 30> H           5.15870500656889     -0.36213826417304     -0.00135803525747
| 31> H           1.50531105289199      2.14055483355695     -0.00083659824291
| 32> H          -0.95653748293490      2.36398869251440      0.00040387919148
| 33> O          -2.64174388838060      0.47698274111336      0.00127945363837
| 34> C          -3.50894905873823     -0.66039237861100     -0.00056469268956
| 35> H          -4.51934479966771     -0.25942361973393     -0.00115730095780
| 36> H          -3.35454963655809     -1.26769402046221     -0.89541239081775
| 37> H          -3.35651421282394     -1.26949456448184      0.89340293864319
| 38> H          -1.33822179201263     -1.91636556956666      0.00170843853084
| 39> *
| 40>
| 41>                          ****END OF INPUT****

CARTESIAN COORDINATES (ANGSTROEM)
---------------------------------
  C     -0.728510   -1.024116    0.001034
  C     -1.308992    0.247283    0.000890
  C     -0.492583    1.385069    0.000312
  C      0.881032    1.255508   -0.000124
  C      1.481829   -0.016815    0.000090
  C      0.653662   -1.146587    0.000700
  H      1.099095   -2.133956    0.000425
  C      2.894611   -0.151159   -0.000859
  C      4.097458   -0.263786    0.000249
  H      5.158705   -0.362138   -0.001358
  H      1.505311    2.140555   -0.000837
  H     -0.956537    2.363989    0.000404
  O     -2.641744    0.476983    0.001279
  C     -3.508949   -0.660392   -0.000565
  H     -4.519345   -0.259424   -0.001157
  H     -3.354550   -1.267694   -0.895412
  H     -3.356514   -1.269495    0.893403
  H     -1.338222   -1.916366    0.001708

 Total Charge           Charge          ....    0
 Multiplicity           Mult            ....    1
 Number of Electrons    NEL             ....   70
 Basis Dimension        Dim             ....  644

ORBITAL ENERGIES
----------------

  NO   OCC          E(Eh)            E(eV)
   0   2.0000     -18.996371      -516.9175
   1   2.0000     -10.106980      -275.0249
   2   2.0000     -10.077618      -274.2259
   3   2.0000     -10.064834      -273.8781
   4   2.0000     -10.050635      -273.4917
   5   2.0000     -10.049908      -273.4719
   6   2.0000     -10.047307      -273.4011
   7   2.0000     -10.042134      -273.2604
   8   2.0000     -10.040887      -273.2264
   9   2.0000     -10.033604      -273.0282
  10   2.0000      -1.038183       -28.2504
  11   2.0000      -0.835385       -22.7320
  12   2.0000      -0.756976       -20.5984
  13   2.0000      -0.727372       -19.7928
  14   2.0000      -0.705834       -19.2067
  15   2.0000      -0.665243       -18.1022
  16   2.0000      -0.590533       -16.0692
  17   2.0000      -0.577987       -15.7278
  18   2.0000      -0.521072       -14.1791
  19   2.0000      -0.497380       -13.5344
  20   2.0000      -0.465515       -12.6673
  21   2.0000      -0.458915       -12.4877
  22   2.0000      -0.435378       -11.8472
  23   2.0000      -0.417177       -11.3520
  24   2.0000      -0.397134       -10.8066
  25   2.0000      -0.384507       -10.4630
  26   2.0000      -0.367372        -9.9967
  27   2.0000      -0.362331        -9.8595
  28   2.0000      -0.335066        -9.1176
  29   2.0000      -0.321807        -8.7568
  30   2.0000      -0.300221        -8.1694
  31   2.0000      -0.270037        -7.3481
  32   2.0000      -0.262428        -7.1410
  33   2.0000      -0.248576        -6.7641
  34   2.0000      -0.202775        -5.5178
  35   0.0000      -0.054885        -1.4935
  36   0.0000      -0.043357        -1.1798
  37   0.0000       0.006036         0.1642
  38   0.0000       0.009531         0.2594
  39   0.0000       0.018578         0.5055

MULLIKEN ATOMIC CHARGES
-----------------------
   0 C :   -0.137377
   1 C :    1.395003
   2 C :   -0.857562
   3 C :   -1.191579
   4 C :    1.730229
   5 C :   -1.369611
   6 H :   -0.407834
   7 C :    1.151992
   8 C :   -0.771453
   9 H :    0.299455
  10 H :   -0.357678
  11 H :    0.563751
  12 O :   -0.699671
  13 C :   -0.634940
  14 H :    0.230498
  15 H :    0.262920
  16 H :    0.262551
  17 H :    0.531304
Sum of atomic charges:   -0.0000000

LOEWDIN ATOMIC CHARGES
----------------------
   0 C :    0.216646
   1 C :   -0.397787
   2 C :    0.210877
   3 C :    0.191399
   4 C :   -0.237063
   5 C :    0.197338
   6 H :   -0.167922
   7 C :   -0.029654
   8 C :    0.398435
   9 H :   -0.295637
  10 H :   -0.169164
  11 H :   -0.175059
  12 O :    0.601082
  13 C :    0.369830
  14 H :   -0.177519
  15 H :   -0.169738
  16 H :   -0.169702
  17 H :   -0.196360

  Mayer bond orders larger than 0.100000
B(  0-C ,  1-C ) :   0.8657 B(  0-C ,  2-C ) :   0.2211 B(  0-C ,  4-C ) :   0.8029
B(  0-C ,  5-C ) :   0.8798 B(  0-C ,  6-H ) :  -0.2517 B(  0-C ,  7-C ) :  -0.2192
B(  0-C ,  8-C ) :  -0.1354 B(  0-C , 10-H ) :  -0.1625 B(  0-C , 11-H ) :  -0.1297
B(  0-C , 17-H ) :   0.2403 B(  1-C ,  2-C ) :   0.6119 B(  1-C ,  3-C ) :  -0.6225
B(  1-C ,  5-C ) :  -0.5644 B(  1-C ,  7-C ) :   0.2503 B(  1-C ,  8-C ) :   0.1109
B(  1-C , 11-H ) :   0.1951 B(  1-C , 12-O ) :   0.2330 B(  1-C , 17-H ) :   0.2149
B(  2-C ,  3-C ) :   1.2618 B(  2-C ,  4-C ) :   0.6040 B(  2-C ,  7-C ) :  -0.1309
B(  2-C , 10-H ) :  -0.1049 B(  2-C , 11-H ) :   0.2259 B(  2-C , 12-O ) :   0.3346
B(  3-C ,  5-C ) :  -0.7292 B(  3-C ,  6-H ) :   0.2572 B(  3-C ,  7-C ) :   0.5282
B(  3-C , 10-H ) :   2.3290 B(  4-C ,  6-H ) :  -0.3115 B(  4-C ,  7-C ) :  -0.2227
B(  4-C ,  8-C ) :   0.8966 B(  4-C , 10-H ) :  -0.1476 B(  4-C , 12-O ) :   0.1294
B(  4-C , 17-H ) :  -0.1001 B(  5-C ,  6-H ) :   2.4860 B(  5-C ,  7-C ) :   0.4367
B(  5-C ,  8-C ) :  -0.1878 B(  5-C , 10-H ) :   0.2278 B(  6-H ,  7-C ) :  -0.3083
B(  6-H ,  8-C ) :  -0.4560 B(  6-H , 10-H ) :   0.5706 B(  6-H , 11-H ) :  -0.1120
B(  6-H , 17-H ) :  -0.1178 B(  7-C ,  8-C ) :   2.0687 B(  7-C ,  9-H ) :  -0.2334
B(  7-C , 10-H ) :  -0.3701 B(  7-C , 17-H ) :   0.1089 B(  8-C ,  9-H ) :   1.2161
B(  8-C , 10-H ) :  -0.4615 B(  8-C , 11-H ) :   0.1971 B(  8-C , 17-H ) :   0.2458
B( 10-H , 11-H ) :  -0.1152 B( 12-O , 13-C ) :   0.9900 B( 13-C , 14-H ) :   0.9912
B( 13-C , 15-H ) :   0.9117 B( 13-C , 16-H ) :   0.9119

Dispersion correction           -0.005508120
FINAL SINGLE POINT ENERGY      -422.847111842334

DIPOLE MOMENT
-------------

Method             : SCF
Type of density    : Electron Density
Multiplicity       :   1
Irrep              :   0
Energy             :  -422.8416037224143906 Eh
Relativity type    :
Basis              : AO
                                X                 Y                 Z
Electronic contribution:      4.293635991       1.955658067       0.003425517
Nuclear contribution   :     -5.422417527      -2.553089128      -0.004814270
                        -----------------------------------------
Total Dipole Moment    :     -1.128781536      -0.597431061      -0.001388753
                        -----------------------------------------
Magnitude (a.u.)       :      1.277134902
Magnitude (Debye)      :      3.246218940

VIBRATIONAL FREQUENCIES
-----------------------

Scaling factor for frequencies =  1.000000000  (already applied!)

     0:       0.00 cm**-1
     1:       0.00 cm**-1
     2:       0.00 cm**-1
     3:       0.00 cm**-1
     4:       0.00 cm**-1
     5:       0.00 cm**-1
     6:      68.33 cm**-1
     7:     123.54 cm**-1
     8:     126.47 cm**-1
     9:     218.12 cm**-1
    10:     260.01 cm**-1
    11:     274.63 cm**-1
    12:     388.86 cm**-1
    13:     417.00 cm**-1
    14:     461.63 cm**-1
    15:     498.40 cm**-1
    16:     541.08 cm**-1
    17:     543.37 cm**-1
    18:     570.72 cm**-1
    19:     650.51 cm**-1
    20:     658.36 cm**-1
    21:     701.75 cm**-1
    22:     745.47 cm**-1
    23:     814.34 cm**-1
    24:     831.20 cm**-1
    25:     841.30 cm**-1
    26:     953.27 cm**-1
    27:     971.82 cm**-1
    28:    1020.02 cm**-1
    29:    1031.90 cm**-1
    30:    1123.06 cm**-1
    31:    1160.29 cm**-1
    32:    1179.14 cm**-1
    33:    1198.55 cm**-1
    34:    1226.67 cm**-1
    35:    1273.59 cm**-1
    36:    1318.34 cm**-1
    37:    1349.06 cm**-1
    38:    1443.34 cm**-1
    39:    1459.93 cm**-1
    40:    1469.46 cm**-1
    41:    1478.24 cm**-1
    42:    1525.09 cm**-1
    43:    1589.86 cm**-1
    44:    1633.79 cm**-1
    45:    2172.42 cm**-1
    46:    3017.78 cm**-1
    47:    3092.02 cm**-1
    48:    3148.03 cm**-1
    49:    3173.76 cm**-1
    50:    3178.31 cm**-1
    51:    3189.03 cm**-1
    52:    3209.65 cm**-1
    53:    3434.35 cm**-1

IR SPECTRUM
-----------

 Mode   freq       eps      Int      T**2         TX        TY        TZ
       cm**-1   L/(mol*cm) km/mol    a.u.
----------------------------------------------------------------------------
  6:     68.33   0.000510    2.58  0.002328  (-0.000172 -0.000637  0.048240)
  7:    123.54   0.000358    1.81  0.000904  ( 0.001452 -0.004725 -0.029654)
  8:    126.47   0.000486    2.46  0.001200  (-0.007508  0.033539 -0.004345)
  9:    218.12   0.000556    2.81  0.000796  (-0.000739  0.000039  0.028200)
 10:    260.01   0.000552    2.79  0.000662  (-0.025600 -0.000110 -0.002585)
 11:    274.63   0.001663    8.40  0.001889  ( 0.000888 -0.000084 -0.043455)
 12:    388.86   0.000437    2.21  0.000350  ( 0.017399 -0.006903 -0.000024)
 13:    417.00   0.000001    0.00  0.000001  ( 0.000196 -0.000184  0.000670)
 14:    461.63   0.001894    9.57  0.001281  ( 0.000030 -0.000005  0.035784)
 15:    498.40   0.002826   14.28  0.001769  (-0.034817  0.023604 -0.000305)
 16:    541.08   0.010210   51.60  0.005888  ( 0.000999  0.001345 -0.076717)
 17:    543.37   0.001223    6.18  0.000702  (-0.015146 -0.021447 -0.003591)
 18:    570.72   0.013414   67.79  0.007335  ( 0.000366 -0.002520  0.085604)
 19:    650.51   0.005039   25.47  0.002417  (-0.003790 -0.049010 -0.001000)
 20:    658.36   0.012387   62.60  0.005871  ( 0.007874  0.076187  0.002190)
 21:    701.75   0.007594   38.38  0.003377  (-0.056195  0.014802  0.000128)
 22:    745.47   0.000071    0.36  0.000030  ( 0.000067  0.000163  0.005458)
 23:    814.34   0.001721    8.70  0.000660  ( 0.000047  0.000155 -0.025682)
 24:    831.20   0.000702    3.55  0.000264  (-0.011825  0.011122 -0.000310)
 25:    841.30   0.025169  127.19  0.009336  (-0.000177  0.000276  0.096621)
 26:    953.27   0.000187    0.94  0.000061  (-0.000185 -0.000155 -0.007816)
 27:    971.82   0.000003    0.02  0.000001  (-0.000159  0.000523 -0.000857)
 28:   1020.02   0.000027    0.14  0.000008  (-0.002626  0.001131  0.000178)
 29:   1031.90   0.026791  135.39  0.008102  ( 0.073726  0.051639  0.000018)
 30:   1123.06   0.005046   25.50  0.001402  (-0.006571  0.036865  0.000033)
 31:   1160.29   0.000157    0.79  0.000042  (-0.000852  0.000349 -0.006437)
 32:   1179.14   0.020992  106.08  0.005556  ( 0.074262  0.006386 -0.000051)
 33:   1198.55   0.002439   12.33  0.000635  ( 0.023045  0.010200 -0.000039)
 34:   1226.67   0.000048    0.24  0.000012  ( 0.002904  0.001916  0.000016)
 35:   1273.59   0.104268  526.93  0.025548  (-0.159341 -0.012601 -0.000080)
 36:   1318.34   0.000382    1.93  0.000090  ( 0.002541  0.009157  0.000004)
 37:   1349.06   0.007644   38.63  0.001768  ( 0.041516  0.006681  0.000025)
 38:   1443.34   0.003181   16.07  0.000688  ( 0.026201  0.001070 -0.000004)
 39:   1459.93   0.006530   33.00  0.001396  ( 0.035715 -0.010956  0.000491)
 40:   1469.46   0.003081   15.57  0.000654  (-0.003491  0.000476  0.025335)
 41:   1478.24   0.006011   30.38  0.001269  (-0.035278  0.004612 -0.001802)
 42:   1525.09   0.046970  237.37  0.009611  ( 0.098017  0.001915 -0.000027)
 43:   1589.86   0.005872   29.67  0.001153  (-0.027116  0.020427 -0.000012)
 44:   1633.79   0.043570  220.18  0.008322  ( 0.091187  0.002652 -0.000004)
 45:   2172.42   0.025981  131.30  0.003732  ( 0.060978 -0.003713 -0.000001)
 46:   3017.78   0.016429   83.02  0.001699  (-0.032239 -0.025680 -0.000263)
 47:   3092.02   0.009182   46.40  0.000927  ( 0.000096  0.000154  0.030441)
 48:   3148.03   0.004881   24.67  0.000484  (-0.019532  0.010119 -0.000022)
 49:   3173.76   0.001798    9.09  0.000177  (-0.013270 -0.000834 -0.000089)
 50:   3178.31   0.001804    9.12  0.000177  (-0.006409  0.011663 -0.000079)
 51:   3189.03   0.001845    9.32  0.000181  (-0.001683  0.013331 -0.000049)
 52:   3209.65   0.000906    4.58  0.000088  (-0.007684 -0.005392  0.000045)
 53:   3434.35   0.046644  235.72  0.004238  ( 0.064890 -0.005256 -0.000100)

--------------------------
THERMOCHEMISTRY AT 298.15K
--------------------------

Temperature         ...   298.15 K
Pressure            ...     1.00 atm
Total Mass          ...   132.16 AMU
Quasi RRHO          ...     True
Cut-Off Frequency   ...     1.00 cm^-1

Throughout the following assumptions are being made:
  (1) The electronic state is orbitally nondegenerate
  (2) There are no thermally accessible electronically excited states
  (3) Hindered rotations indicated by low frequency modes are not
      treated as such but are treated as vibrations and this may
      cause some error
  (4) All equations used are the standard statistical mechanics
      equations for an ideal gas
  (5) All vibrations are strictly harmonic

freq.      68.33  E(vib)   ...       0.50
freq.     123.54  E(vib)   ...       0.43
freq.     126.47  E(vib)   ...       0.43
freq.     218.12  E(vib)   ...       0.33
freq.     260.01  E(vib)   ...       0.30
freq.     274.63  E(vib)   ...       0.28
freq.     388.86  E(vib)   ...       0.20
freq.     417.00  E(vib)   ...       0.18
freq.     461.63  E(vib)   ...       0.16
freq.     498.40  E(vib)   ...       0.14
freq.     541.08  E(vib)   ...       0.12
freq.     543.37  E(vib)   ...       0.12
freq.     570.72  E(vib)   ...       0.11
freq.     650.51  E(vib)   ...       0.08
freq.     658.36  E(vib)   ...       0.08
freq.     701.75  E(vib)   ...       0.07
freq.     745.47  E(vib)   ...       0.06
freq.     814.34  E(vib)   ...       0.05
freq.     831.20  E(vib)   ...       0.04
freq.     841.30  E(vib)   ...       0.04
freq.     953.27  E(vib)   ...       0.03
freq.     971.82  E(vib)   ...       0.03
freq.    1020.02  E(vib)   ...       0.02
freq.    1031.90  E(vib)   ...       0.02
freq.    1123.06  E(vib)   ...       0.01
freq.    1160.29  E(vib)   ...       0.01
freq.    1179.14  E(vib)   ...       0.01
freq.    1198.55  E(vib)   ...       0.01
freq.    1226.67  E(vib)   ...       0.01
freq.    1273.59  E(vib)   ...       0.01
freq.    1318.34  E(vib)   ...       0.01
freq.    1349.06  E(vib)   ...       0.01
freq.    1443.34  E(vib)   ...       0.00
freq.    1459.93  E(vib)   ...       0.00
freq.    1469.46  E(vib)   ...       0.00
freq.    1478.24  E(vib)   ...       0.00
freq.    1525.09  E(vib)   ...       0.00
freq.    1589.86  E(vib)   ...       0.00
freq.    1633.79  E(vib)   ...       0.00
freq.    2172.42  E(vib)   ...       0.00
freq.    3017.78  E(vib)   ...       0.00
freq.    3092.02  E(vib)   ...       0.00
freq.    3148.03  E(vib)   ...       0.00
freq.    3173.76  E(vib)   ...       0.00
freq.    3178.31  E(vib)   ...       0.00
freq.    3189.03  E(vib)   ...       0.00
freq.    3209.65  E(vib)   ...       0.00
freq.    3434.35  E(vib)   ...       0.00

------------
INNER ENERGY
------------

The inner energy is: U= E(el) + E(ZPE) + E(vib) + E(rot) + E(trans)
    E(el)   - is the total energy from the electronic structure calculation
              = E(kin-el) + E(nuc-el) + E(el-el) + E(nuc-nuc)
    E(ZPE)  - the the zero temperature vibrational energy from the frequency calculation
    E(vib)  - the the finite temperature correction to E(ZPE) due to population
              of excited vibrational states
    E(rot)  - is the rotational thermal energy
    E(trans)- is the translational thermal energy

Summary of contributions to the inner energy U:
Electronic energy                ...   -422.84711184 Eh
Zero point energy                ...      0.14069014 Eh      88.28 kcal/mol
Thermal vibrational correction   ...      0.00628470 Eh       3.94 kcal/mol
Thermal rotational correction    ...      0.00141627 Eh       0.89 kcal/mol
Thermal translational correction ...      0.00141627 Eh       0.89 kcal/mol
-----------------------------------------------------------------------
Total thermal energy                   -422.69730445 Eh

Summary of corrections to the electronic energy:
(perhaps to be used in another calculation)
Total thermal correction                  0.00911725 Eh       5.72 kcal/mol
Non-thermal (ZPE) correction              0.14069014 Eh      88.28 kcal/mol
-----------------------------------------------------------------------
Total correction                          0.14980739 Eh      94.01 kcal/mol

--------
ENTHALPY
--------

The enthalpy is H = U + kB*T
                kB is Boltzmann's constant
Total thermal energy              ...   -422.69730445 Eh
Thermal Enthalpy correction       ...      0.00094421 Eh       0.59 kcal/mol
-----------------------------------------------------------------------
Total Enthalpy                    ...   -422.69636024 Eh

Note: Only C1 symmetry has been detected, increase convergence thresholds
      if your molecule has a higher symmetry. Symmetry factor of 1.0 is
      used for the rotational entropy correction.

Note: Rotational entropy computed according to Herzberg
Infrared and Raman Spectra, Chapter V,1, Van Nostrand Reinhold, 1945
Point Group:  C1, Symmetry Number:   1
Rotational constants in cm-1:     0.161027     0.023727     0.020762

Vibrational entropy computed according to the QRRHO of S. Grimme
Chem.Eur.J. 2012 18 9955 using a reference frequency of 100.0 cm-1

-------
ENTROPY
-------

The entropy contributions are T*S = T*(S(el)+S(vib)+S(rot)+S(trans))
     S(el)   - electronic entropy
     S(vib)  - vibrational entropy
     S(rot)  - rotational entropy
     S(trans)- translational entropy
The entropies will be listed as multiplied by the temperature to get
units of energy

Electronic entropy                ...      0.00000000 Eh      0.00 kcal/mol
Vibrational entropy               ...      0.01046559 Eh      6.57 kcal/mol
Rotational entropy                ...      0.01396827 Eh      8.77 kcal/mol
Translational entropy             ...      0.01926618 Eh     12.09 kcal/mol
-----------------------------------------------------------------------
Final entropy term                ...      0.04370004 Eh     27.42 kcal/mol

In case the symmetry of your molecule has not been determined correctly
or in case you have a reason to use a different symmetry number we print
out the resulting rotational entropy values for sn=1,12:

 non-linear molecules -----------------------------------
|  sn= 1 | S(rot)=       0.01396827 Eh      8.77 kcal/mol|
|  sn= 2 | S(rot)=       0.01331381 Eh      8.35 kcal/mol|
|  sn= 3 | S(rot)=       0.01293098 Eh      8.11 kcal/mol|
|  sn= 4 | S(rot)=       0.01265936 Eh      7.94 kcal/mol|
|  sn= 5 | S(rot)=       0.01244867 Eh      7.81 kcal/mol|
|  sn= 6 | S(rot)=       0.01227652 Eh      7.70 kcal/mol|
|  sn= 7 | S(rot)=       0.01213098 Eh      7.61 kcal/mol|
|  sn= 8 | S(rot)=       0.01200490 Eh      7.53 kcal/mol|
|  sn= 9 | S(rot)=       0.01189369 Eh      7.46 kcal/mol|
|  sn=10 | S(rot)=       0.01179421 Eh      7.40 kcal/mol|
|  sn=11 | S(rot)=       0.01170422 Eh      7.34 kcal/mol|
|  sn=12 | S(rot)=       0.01162207 Eh      7.29 kcal/mol|

                             ****ORCA TERMINATED NORMALLY****
TOTAL RUN TIME: 0 days 0 hours 19 minutes 17 seconds 225 msec
