                         Program Version 6.0.0  -   RELEASE  -
|  1> !r2SCAN aug-cc-pVTZ d3 TightSCF SlowConv RIJCOSX defgrid2
|  2>
|  3> %pal
|  4> nprocs 4
|  5> end
|  6>
|  7> %scf
|  8> MaxIter 1500
|  9> end
| 10>
| 11> %maxcore 3000
| 12>
| 13> !CPCM
| 14> %cpcm smd true
| 15> SMDsolvent "MeCN"
| 16> surfacetype gepol_ses
| 17> rsolv 2.19
| 18> end
| 19>
| 20> * xyz 1 2
| 21>   C          -0.51166320460813      1.22812669775511      0.04221064338961
| 22>   C          -1.88952625296000      1.21539539176763      0.05617367919047
| 23>   C          -2.59180844712688      0.00013116204188     -0.01880666295911
| 24>   C          -1.89049624956733     -1.21520671526456     -0.10134329816321
| 25>   C          -0.51256019966680     -1.22809524037907     -0.10227638476799
| 26>   C           0.21731408963535     -0.00001586789402     -0.03400404554273
| 27>   N           1.56995492990017     -0.00005133599829     -0.04140778831312
| 28>   C           2.34433477639579      1.21948603186316     -0.20492690765417
| 29>   H           3.31457999055289      0.96026373998418     -0.65302403936483
| 30>   H           1.83135324244622      1.92816869292227     -0.86818407839005
| 31>   H           2.52747752953805      1.69293789980228      0.77768636738438
| 32>   C           2.34605804905977     -1.21960114143284      0.11365277395931
| 33>   H           3.32105951761834     -0.96038019427341      0.55132163130194
| 34>   H           1.84024142677529     -1.92835608634421      0.78230594720200
| 35>   H           2.51862728476156     -1.69296466175821     -0.87090867989595
| 36>   H           0.01065172080766     -2.18040178328804     -0.19486548078037
| 37>   H          -2.43851884091908     -2.15821605280130     -0.17289394083341
| 38>   H          -3.68523926435270      0.00018625586019     -0.01289591193808
| 39>   H          -2.43664007610670      2.15846249523866      0.13367176321164
| 40>   H           0.01262657781651      2.18036711219859      0.12915381296366
| 41> *
| 42>
| 43>                          ****END OF INPUT****

CARTESIAN COORDINATES (ANGSTROEM)
---------------------------------
  C     -0.511663    1.228127    0.042211
  C     -1.889526    1.215395    0.056174
  C     -2.591808    0.000131   -0.018807
  C     -1.890496   -1.215207   -0.101343
  C     -0.512560   -1.228095   -0.102276
  C      0.217314   -0.000016   -0.034004
  N      1.569955   -0.000051   -0.041408
  C      2.344335    1.219486   -0.204927
  H      3.314580    0.960264   -0.653024
  H      1.831353    1.928169   -0.868184
  H      2.527478    1.692938    0.777686
  C      2.346058   -1.219601    0.113653
  H      3.321060   -0.960380    0.551322
  H      1.840241   -1.928356    0.782306
  H      2.518627   -1.692965   -0.870909
  H      0.010652   -2.180402   -0.194865
  H     -2.438519   -2.158216   -0.172894
  H     -3.685239    0.000186   -0.012896
  H     -2.436640    2.158462    0.133672
  H      0.012627    2.180367    0.129154

 Total Charge           Charge          ....    1
 Multiplicity           Mult            ....    2
 Number of Electrons    NEL             ....   65
 Basis Dimension        Dim             ....  667

ORBITAL ENERGIES
----------------
                 SPIN UP ORBITALS
  NO   OCC          E(Eh)            E(eV)
   0   1.0000     -14.288701      -388.8153
   1   1.0000     -10.128173      -275.6016
   2   1.0000     -10.086822      -274.4764
   3   1.0000     -10.086781      -274.4753
   4   1.0000     -10.078261      -274.2434
   5   1.0000     -10.078242      -274.2429
   6   1.0000     -10.077847      -274.2321
   7   1.0000     -10.066099      -273.9125
   8   1.0000     -10.066097      -273.9124
   9   1.0000      -0.989918       -26.9370
  10   1.0000      -0.848395       -23.0860
  11   1.0000      -0.753700       -20.5092
  12   1.0000      -0.752832       -20.4856
  13   1.0000      -0.716043       -19.4845
  14   1.0000      -0.669048       -18.2057
  15   1.0000      -0.598545       -16.2872
  16   1.0000      -0.574421       -15.6308
  17   1.0000      -0.530641       -14.4395
  18   1.0000      -0.486269       -13.2320
  19   1.0000      -0.485951       -13.2234
  20   1.0000      -0.476570       -12.9681
  21   1.0000      -0.435464       -11.8496
  22   1.0000      -0.424331       -11.5466
  23   1.0000      -0.417817       -11.3694
  24   1.0000      -0.394919       -10.7463
  25   1.0000      -0.389697       -10.6042
  26   1.0000      -0.382028       -10.3955
  27   1.0000      -0.366520        -9.9735
  28   1.0000      -0.354245        -9.6395
  29   1.0000      -0.331297        -9.0150
  30   1.0000      -0.314984        -8.5712
  31   1.0000      -0.273121        -7.4320
  32   1.0000      -0.236117        -6.4251
  33   0.0000      -0.063121        -1.7176
  34   0.0000      -0.058555        -1.5934
  35   0.0000       0.002036         0.0554
  36   0.0000       0.019418         0.5284
  37   0.0000       0.022228         0.6049

                 SPIN DOWN ORBITALS
  NO   OCC          E(Eh)            E(eV)
   0   1.0000     -14.275372      -388.4526
   1   1.0000     -10.129589      -275.6401
   2   1.0000     -10.087244      -274.4879
   3   1.0000     -10.087203      -274.4867
   4   1.0000     -10.074402      -274.1384
   5   1.0000     -10.074383      -274.1379
   6   1.0000     -10.072336      -274.0822
   7   1.0000     -10.068231      -273.9705
   8   1.0000     -10.068220      -273.9702
   9   1.0000      -0.971700       -26.4413
  10   1.0000      -0.842183       -22.9170
  11   1.0000      -0.749156       -20.3856
  12   1.0000      -0.748899       -20.3786
  13   1.0000      -0.715440       -19.4681
  14   1.0000      -0.659738       -17.9524
  15   1.0000      -0.595686       -16.2094
  16   1.0000      -0.569407       -15.4943
  17   1.0000      -0.527259       -14.3475
  18   1.0000      -0.482682       -13.1344
  19   1.0000      -0.472170       -12.8484
  20   1.0000      -0.461167       -12.5490
  21   1.0000      -0.434582       -11.8256
  22   1.0000      -0.421116       -11.4591
  23   1.0000      -0.417169       -11.3517
  24   1.0000      -0.390644       -10.6300
  25   1.0000      -0.387773       -10.5518
  26   1.0000      -0.371462       -10.1080
  27   1.0000      -0.364268        -9.9122
  28   1.0000      -0.352476        -9.5914
  29   1.0000      -0.329773        -8.9736
  30   1.0000      -0.293605        -7.9894
  31   1.0000      -0.264539        -7.1985
  32   0.0000      -0.184643        -5.0244
  33   0.0000      -0.053582        -1.4580
  34   0.0000      -0.038862        -1.0575
  35   0.0000       0.003722         0.1013
  36   0.0000       0.020885         0.5683

MULLIKEN ATOMIC CHARGES AND SPIN POPULATIONS
--------------------------------------------
   0 C :   -0.428111    0.253006
   1 C :   -0.664627   -0.163080
   2 C :   -0.447009    0.353813
   3 C :   -0.664842   -0.163069
   4 C :   -0.428699    0.253104
   5 C :    1.437861   -0.049659
   6 N :    0.019811    0.470489
   7 C :   -0.719522   -0.028653
   8 H :    0.226594    0.009646
   9 H :    0.235643    0.004661
  10 H :    0.297324    0.040246
  11 C :   -0.719646   -0.028666
  12 H :    0.226948    0.009662
  13 H :    0.235241    0.004701
  14 H :    0.297041    0.040212
  15 H :    0.416970   -0.003546
  16 H :    0.369028   -0.005700
  17 H :    0.524360    0.011998
  18 H :    0.368605   -0.005678
  19 H :    0.417030   -0.003488
Sum of atomic charges         :    1.0000000

LOEWDIN ATOMIC CHARGES AND SPIN POPULATIONS
-------------------------------------------
   0 C :    0.267687    0.098866
   1 C :    0.239263    0.018102
   2 C :    0.245799    0.141554
   3 C :    0.239260    0.018110
   4 C :    0.267662    0.098872
   5 C :   -0.154254    0.080079
   6 N :    0.303721    0.313665
   7 C :    0.572590    0.054448
   8 H :   -0.131900    0.005789
   9 H :   -0.146910    0.006859
  10 H :   -0.103076    0.018717
  11 C :    0.572580    0.054449
  12 H :   -0.131876    0.005792
  13 H :   -0.146949    0.006855
  14 H :   -0.103092    0.018714
  15 H :   -0.166678    0.022192
  16 H :   -0.153201   -0.010547
  17 H :   -0.150789    0.035843
  18 H :   -0.153204   -0.010549
  19 H :   -0.166632    0.022190

  Mayer bond orders larger than 0.100000
B(  0-C ,  1-C ) :   1.1340 B(  0-C ,  2-C ) :   0.3009 B(  0-C ,  3-C ) :  -0.1745
B(  0-C ,  4-C ) :   0.2742 B(  0-C ,  5-C ) :   0.2672 B(  0-C ,  6-N ) :  -0.1702
B(  0-C , 19-H ) :   0.4499 B(  1-C ,  2-C ) :   0.9922 B(  1-C ,  4-C ) :  -0.1743
B(  1-C ,  5-C ) :  -0.3416 B(  1-C , 18-H ) :   0.7465 B(  2-C ,  3-C ) :   0.9922
B(  2-C ,  4-C ) :   0.3008 B(  2-C ,  5-C ) :  -0.2511 B(  2-C , 17-H ) :   0.4619
B(  3-C ,  4-C ) :   1.1345 B(  3-C ,  5-C ) :  -0.3415 B(  3-C , 16-H ) :   0.7461
B(  4-C ,  5-C ) :   0.2668 B(  4-C ,  6-N ) :  -0.1705 B(  4-C , 15-H ) :   0.4504
B(  5-C ,  6-N ) :   0.6438 B(  5-C ,  7-C ) :  -0.1646 B(  5-C , 11-C ) :  -0.1649
B(  6-N ,  7-C ) :   1.1012 B(  6-N , 11-C ) :   1.1012 B(  7-C ,  8-H ) :   0.9400
B(  7-C ,  9-H ) :   0.9684 B(  7-C , 10-H ) :   0.8679 B( 11-C , 12-H ) :   0.9392
B( 11-C , 13-H ) :   0.9687 B( 11-C , 14-H ) :   0.8685

Dispersion correction           -0.006115887
FINAL SINGLE POINT ENERGY      -365.964491484714

DIPOLE MOMENT
-------------

Method             : SCF
Type of density    : Electron Density
Multiplicity       :   2
Irrep              :   0
Energy             :  -365.9583755973212646 Eh
Relativity type    :
Basis              : AO
                                X                 Y                 Z
Electronic contribution:     -4.934391027       0.000499210       0.027065795
Nuclear contribution   :      6.490918904      -0.000107030      -0.035404468
                        -----------------------------------------
Total Dipole Moment    :      1.556527877       0.000392181      -0.008338673
                        -----------------------------------------
Magnitude (a.u.)       :      1.556550262
Magnitude (Debye)      :      3.956436344

Rotational constants in cm-1:             0.115459             0.040921             0.030704
Rotational constants in MHz :          3461.380126          1226.789981           920.471270

                             ****ORCA TERMINATED NORMALLY****
TOTAL RUN TIME: 0 days 0 hours 4 minutes 43 seconds 850 msec
