                         Program Version 6.0.0  -   RELEASE  -
|  1> !PBE0 opt def2-SV(p) d3 TightSCF SlowConv RIJCOSX defgrid2
|  2>
|  3> %pal
|  4> nprocs 8
|  5> end
|  6>
|  7> %scf
|  8> MaxIter 1500
|  9> end
| 10>
| 11> %maxcore 3500
| 12>
| 13> !CPCM
| 14> %cpcm smd true
| 15> SMDsolvent "MeCN"
| 16> surfacetype gepol_ses
| 17> rsolv 2.19
| 18> end
| 19>
| 20> * xyz 1 2
| 21> C           0.96002552011709     -1.32253975774944      0.00002107203161
| 22> C           2.30946577689281     -1.05292578484351     -0.00001183018851
| 23> C           2.75162476164071      0.28756052755572     -0.00002650301661
| 24> C           1.83902538005307      1.36187223575537     -0.00000118304244
| 25> C           0.48711647576379      1.10797066538425      0.00002893131122
| 26> C           0.02041417697925     -0.24724272024865      0.00003631726405
| 27> C          -1.36049677571781     -0.55035510408661      0.00004151636512
| 28> N          -2.24435922885682      0.43165315940707      0.00003462017491
| 29> O          -3.46568256477989     -0.02410885729296      0.00002059528734
| 30> H          -4.06414072403569      0.75247060999126      0.00003013023410
| 31> H          -1.71241527206750     -1.59215357045924      0.00004127844656
| 32> H          -0.24324441524782      1.92013568517355      0.00004228420146
| 33> H           2.20910910746605      2.39016696582870     -0.00001172730682
| 34> H           3.82614866589464      0.49606739820897     -0.00005739041351
| 35> H           3.03863533465800     -1.86708723654366     -0.00002808352063
| 36> H           0.59646668124012     -2.35410821608081      0.00003057217215
| 37> *
| 38>
| 39>                          ****END OF INPUT****
 Total Charge           Charge          ....    1
 Multiplicity           Mult            ....    2
 Number of Electrons    NEL             ....   63
Dispersion correction           -0.013877272
FINAL SINGLE POINT ENERGY      -399.900089996389
Dispersion correction             ... done (  0.1 sec)
Dispersion correction           -0.013887332
FINAL SINGLE POINT ENERGY      -399.900107529647
Dispersion correction             ... done (  0.1 sec)
Dispersion correction           -0.013889364
FINAL SINGLE POINT ENERGY      -399.900108341347
Dispersion correction             ... done (  0.1 sec)
Dispersion correction           -0.013889402
FINAL SINGLE POINT ENERGY      -399.900109238392
Dispersion correction             ... done (  0.1 sec)
                    ***********************HURRAY********************

CARTESIAN COORDINATES (ANGSTROEM)
---------------------------------
  C      0.957545   -1.321898    0.001568
  C      2.306681   -1.051773   -0.002049
  C      2.748356    0.286874   -0.002287
  C      1.836588    1.361091    0.000891
  C      0.485263    1.108337    0.003412
  C      0.020834   -0.245965    0.003611
  C     -1.357049   -0.553750    0.003529
  N     -2.239479    0.427978   -0.000644
  O     -3.464480   -0.027245   -0.005363
  H     -4.058792    0.759975   -0.007394
  H     -1.699669   -1.596958    0.005172
  H     -0.242282    1.922320    0.005740
  H      2.207542    2.388518    0.000800
  H      3.821986    0.495264   -0.005038
  H      3.036089   -1.864913   -0.004545
  H      0.588561   -2.350481    0.002788

 Multiplicity           Mult            ....    2
 Number of Electrons    NEL             ....   63
 Basis Dimension        Dim             ....  140

ORBITAL ENERGIES
----------------
                 SPIN UP ORBITALS
  NO   OCC          E(Eh)            E(eV)
   0   1.0000     -19.341022      -526.2960
   1   1.0000     -14.522410      -395.1749
   2   1.0000     -10.329857      -281.0897
   3   1.0000     -10.314051      -280.6596
   4   1.0000     -10.298016      -280.2233
   5   1.0000     -10.289167      -279.9825
   6   1.0000     -10.288290      -279.9586
   7   1.0000     -10.274657      -279.5876
   8   1.0000     -10.272737      -279.5354
   9   1.0000      -1.224443       -33.3188
  10   1.0000      -0.958517       -26.0826
  11   1.0000      -0.915356       -24.9081
  12   1.0000      -0.823104       -22.3978
  13   1.0000      -0.809345       -22.0234
  14   1.0000      -0.715083       -19.4584
  15   1.0000      -0.669394       -18.2151
  16   1.0000      -0.638903       -17.3854
  17   1.0000      -0.605496       -16.4764
  18   1.0000      -0.579998       -15.7826
  19   1.0000      -0.542507       -14.7624
  20   1.0000      -0.539066       -14.6687
  21   1.0000      -0.512982       -13.9590
  22   1.0000      -0.493680       -13.4337
  23   1.0000      -0.475856       -12.9487
  24   1.0000      -0.470580       -12.8051
  25   1.0000      -0.444533       -12.0964
  26   1.0000      -0.406471       -11.0606
  27   1.0000      -0.394546       -10.7361
  28   1.0000      -0.371289       -10.1033
  29   1.0000      -0.354192        -9.6381
  30   1.0000      -0.313772        -8.5382
  31   1.0000      -0.299719        -8.1558
  32   0.0000      -0.112004        -3.0478
  33   0.0000      -0.040531        -1.1029
  34   0.0000      -0.002518        -0.0685
  35   0.0000       0.053906         1.4669
  36   0.0000       0.071986         1.9588

                 SPIN DOWN ORBITALS
  NO   OCC          E(Eh)            E(eV)
   0   1.0000     -19.334028      -526.1056
   1   1.0000     -14.515027      -394.9740
   2   1.0000     -10.330381      -281.1039
   3   1.0000     -10.311327      -280.5855
   4   1.0000     -10.293536      -280.1013
   5   1.0000     -10.287273      -279.9309
   6   1.0000     -10.287028      -279.9243
   7   1.0000     -10.275353      -279.6066
   8   1.0000     -10.273838      -279.5654
   9   1.0000      -1.210197       -32.9311
  10   1.0000      -0.947869       -25.7928
  11   1.0000      -0.906042       -24.6547
  12   1.0000      -0.814061       -22.1517
  13   1.0000      -0.806625       -21.9494
  14   1.0000      -0.709723       -19.3126
  15   1.0000      -0.666184       -18.1278
  16   1.0000      -0.634162       -17.2564
  17   1.0000      -0.599633       -16.3168
  18   1.0000      -0.576978       -15.7004
  19   1.0000      -0.538585       -14.6556
  20   1.0000      -0.510508       -13.8916
  21   1.0000      -0.496657       -13.5147
  22   1.0000      -0.491184       -13.3658
  23   1.0000      -0.475199       -12.9308
  24   1.0000      -0.468213       -12.7407
  25   1.0000      -0.423620       -11.5273
  26   1.0000      -0.405480       -11.0337
  27   1.0000      -0.392553       -10.6819
  28   1.0000      -0.346309        -9.4236
  29   1.0000      -0.339184        -9.2297
  30   1.0000      -0.309878        -8.4322
  31   0.0000      -0.206616        -5.6223
  32   0.0000      -0.078800        -2.1442
  33   0.0000      -0.031257        -0.8506
  34   0.0000       0.017907         0.4873
  35   0.0000       0.056658         1.5417

MULLIKEN ATOMIC CHARGES AND SPIN POPULATIONS
--------------------------------------------
   0 C :   -0.054999    0.083736
   1 C :   -0.082491   -0.061382
   2 C :   -0.012433    0.313148
   3 C :   -0.084786   -0.092957
   4 C :   -0.047714    0.120848
   5 C :    0.039856    0.183083
   6 C :    0.028220   -0.048535
   7 N :    0.019963    0.321025
   8 O :   -0.262170    0.211386
   9 H :    0.419307   -0.008089
  10 H :    0.188525    0.000695
  11 H :    0.166574   -0.007089
  12 H :    0.165327    0.002808
  13 H :    0.179441   -0.015233
  14 H :    0.167044    0.001435
  15 H :    0.170337   -0.004881
Sum of atomic charges         :    1.0000000

LOEWDIN ATOMIC CHARGES AND SPIN POPULATIONS
-------------------------------------------
   0 C :   -0.042543    0.080919
   1 C :   -0.095803   -0.024683
   2 C :    0.007652    0.250682
   3 C :   -0.102523   -0.046929
   4 C :   -0.038742    0.109474
   5 C :   -0.000610    0.150731
   6 C :   -0.012431   -0.017153
   7 N :    0.043316    0.296757
   8 O :   -0.122830    0.218409
   9 H :    0.351597   -0.006137
  10 H :    0.167340   -0.000138
  11 H :    0.166685   -0.003721
  12 H :    0.167098    0.001301
  13 H :    0.171568   -0.007514
  14 H :    0.167899    0.000636
  15 H :    0.172326   -0.002635

  Mayer bond orders larger than 0.100000
B(  0-C ,  1-C ) :   1.4796 B(  0-C ,  5-C ) :   1.2006 B(  0-C , 15-H ) :   0.9546
B(  1-C ,  2-C ) :   1.2805 B(  1-C , 14-H ) :   0.9561 B(  2-C ,  3-C ) :   1.2811
B(  2-C , 13-H ) :   0.9485 B(  3-C ,  4-C ) :   1.4832 B(  3-C , 12-H ) :   0.9573
B(  4-C ,  5-C ) :   1.1826 B(  4-C , 11-H ) :   0.9471 B(  5-C ,  6-C ) :   1.3008
B(  6-C ,  7-N ) :   1.5332 B(  6-C , 10-H ) :   0.9173 B(  7-N ,  8-O ) :   1.2118
B(  8-O ,  9-H ) :   0.7889

Dispersion correction           -0.013889023
FINAL SINGLE POINT ENERGY      -399.900113351917

DIPOLE MOMENT
-------------

Method             : SCF
Type of density    : Electron Density
Multiplicity       :   2
Irrep              :   0
Energy             :  -399.8862243286188800 Eh
Relativity type    :
Basis              : AO
                                X                 Y                 Z
Electronic contribution:     -3.561390294       0.195772659       0.002013990
Nuclear contribution   :      3.312790193      -0.245462339      -0.002781312
                        -----------------------------------------
Total Dipole Moment    :     -0.248600101      -0.049689680      -0.000767322
                        -----------------------------------------
Magnitude (a.u.)       :      0.253518566
Magnitude (Debye)      :      0.644392984

Rotational constants in cm-1:             0.166582             0.031088             0.026199
Rotational constants in MHz :          4993.992883           932.007375           785.429461

                             ****ORCA TERMINATED NORMALLY****
TOTAL RUN TIME: 0 days 0 hours 5 minutes 10 seconds 922 msec
