                         Program Version 6.0.0  -   RELEASE  -
|  1> !B3LYP freq aug-cc-pVTZ d3 TightSCF SlowConv RIJCOSX defgrid2
|  2>
|  3> %pal
|  4> nprocs 12
|  5>
|  6> end
|  7>
|  8> %scf
|  9> MaxIter 1500
| 10> end
| 11>
| 12> %maxcore 5000
| 13>
| 14> !CPCM
| 15> %cpcm smd true
| 16> SMDsolvent "MeCN"
| 17> surfacetype gepol_ses
| 18> rsolv 2.19
| 19> end
| 20>
| 21> * xyz 0 1
| 22> C           0.93924085662834     -1.26523252416147     -0.00017646754033
| 23> C           2.30908812193567     -1.03097605729146     -0.00033158603064
| 24> C           2.79083670106238      0.27223779598679     -0.00012841794991
| 25> C           1.89610122403117      1.34202983254025      0.00036004945491
| 26> C           0.53024129130389      1.11225245248578      0.00045877368436
| 27> C           0.03572296394201     -0.19874587280250      0.00008083574642
| 28> C          -1.39375719230000     -0.50268923986292      0.00014094862380
| 29> N          -2.27788705756171      0.41394393775255     -0.00140018087446
| 30> O          -3.57547996423056     -0.12578713880833     -0.00077693882373
| 31> H          -4.14362447538078      0.65772146452676     -0.00019701196708
| 32> H          -1.68997171760419     -1.55024877447560      0.00194281684612
| 33> H          -0.16003276171972      1.94371198195611      0.00095944221226
| 34> H           2.26910393429992      2.35736705260086      0.00010230297886
| 35> H           3.85642510067080      0.45728800372835     -0.00052519619886
| 36> H           2.99745788239533     -1.86505548739580     -0.00054705826671
| 37> H           0.56422949252746     -2.28041572677939      0.00024508810500
| 38> *
| 39>
| 40>                          ****END OF INPUT****

CARTESIAN COORDINATES (ANGSTROEM)
---------------------------------
  C      0.939241   -1.265233   -0.000176
  C      2.309088   -1.030976   -0.000332
  C      2.790837    0.272238   -0.000128
  C      1.896101    1.342030    0.000360
  C      0.530241    1.112252    0.000459
  C      0.035723   -0.198746    0.000081
  C     -1.393757   -0.502689    0.000141
  N     -2.277887    0.413944   -0.001400
  O     -3.575480   -0.125787   -0.000777
  H     -4.143624    0.657721   -0.000197
  H     -1.689972   -1.550249    0.001943
  H     -0.160033    1.943712    0.000959
  H      2.269104    2.357367    0.000102
  H      3.856425    0.457288   -0.000525
  H      2.997458   -1.865055   -0.000547
  H      0.564229   -2.280416    0.000245

 Total Charge           Charge          ....    0
 Multiplicity           Mult            ....    1
 Number of Electrons    NEL             ....   64
 Basis Dimension        Dim             ....  575

ORBITAL ENERGIES
----------------

  NO   OCC          E(Eh)            E(eV)
   0   2.0000     -19.174249      -521.7578
   1   2.0000     -14.372489      -391.0953
   2   2.0000     -10.212682      -277.9012
   3   2.0000     -10.192834      -277.3611
   4   2.0000     -10.180018      -277.0124
   5   2.0000     -10.178400      -276.9684
   6   2.0000     -10.177801      -276.9521
   7   2.0000     -10.176910      -276.9278
   8   2.0000     -10.176631      -276.9202
   9   2.0000      -1.085369       -29.5344
  10   2.0000      -0.885644       -24.0996
  11   2.0000      -0.851732       -23.1768
  12   2.0000      -0.758268       -20.6335
  13   2.0000      -0.750489       -20.4218
  14   2.0000      -0.641048       -17.4438
  15   2.0000      -0.611324       -16.6350
  16   2.0000      -0.568918       -15.4810
  17   2.0000      -0.533794       -14.5253
  18   2.0000      -0.513704       -13.9786
  19   2.0000      -0.471019       -12.8171
  20   2.0000      -0.456477       -12.4214
  21   2.0000      -0.438124       -11.9220
  22   2.0000      -0.424245       -11.5443
  23   2.0000      -0.423096       -11.5130
  24   2.0000      -0.414347       -11.2750
  25   2.0000      -0.379167       -10.3177
  26   2.0000      -0.353073        -9.6076
  27   2.0000      -0.345339        -9.3972
  28   2.0000      -0.302781        -8.2391
  29   2.0000      -0.291687        -7.9372
  30   2.0000      -0.262270        -7.1367
  31   2.0000      -0.237099        -6.4518
  32   0.0000      -0.054453        -1.4817
  33   0.0000      -0.016891        -0.4596
  34   0.0000      -0.002833        -0.0771
  35   0.0000       0.003281         0.0893
  36   0.0000       0.012941         0.3521

MULLIKEN ATOMIC CHARGES
-----------------------
   0 C :   -0.985833
   1 C :   -0.571743
   2 C :   -0.205570
   3 C :   -0.707061
   4 C :   -0.653390
   5 C :    1.839201
   6 C :   -0.051951
   7 N :   -0.466068
   8 O :   -0.331015
   9 H :    0.173983
  10 H :    0.445482
  11 H :    0.023192
  12 H :    0.555817
  13 H :    0.388096
  14 H :    0.565333
  15 H :   -0.018472
Sum of atomic charges:    0.0000000

LOEWDIN ATOMIC CHARGES
----------------------
   0 C :    0.200625
   1 C :    0.200363
   2 C :    0.196741
   3 C :    0.198525
   4 C :    0.195393
   5 C :   -0.171581
   6 C :   -0.027504
   7 N :    0.139038
   8 O :    0.663296
   9 H :   -0.524192
  10 H :   -0.183245
  11 H :   -0.188807
  12 H :   -0.175488
  13 H :   -0.176033
  14 H :   -0.175413
  15 H :   -0.171718

  Mayer bond orders larger than 0.100000
B(  0-C ,  1-C ) :   1.1567 B(  0-C ,  2-C ) :  -0.1557 B(  0-C ,  4-C ) :  -0.4666
B(  0-C ,  6-C ) :   0.1329 B(  0-C , 11-H ) :   0.1312 B(  0-C , 13-H ) :   0.1035
B(  0-C , 14-H ) :  -0.2267 B(  0-C , 15-H ) :   1.7579 B(  1-C ,  2-C ) :   1.2493
B(  1-C ,  3-C ) :   0.1671 B(  1-C , 14-H ) :   0.4843 B(  1-C , 15-H ) :  -0.1397
B(  2-C ,  3-C ) :   1.1647 B(  2-C ,  4-C ) :  -0.1858 B(  2-C ,  5-C ) :  -0.1181
B(  2-C ,  6-C ) :   0.1407 B(  2-C , 13-H ) :   0.7643 B(  3-C ,  4-C ) :   1.1557
B(  3-C ,  5-C ) :   0.1271 B(  3-C , 12-H ) :   0.4665 B(  3-C , 15-H ) :  -0.1044
B(  4-C ,  5-C ) :   0.4511 B(  4-C ,  6-C ) :   0.2881 B(  4-C , 11-H ) :   1.3846
B(  4-C , 12-H ) :  -0.1167 B(  4-C , 15-H ) :   0.1268 B(  5-C ,  7-N ) :  -0.1305
B(  5-C , 11-H ) :  -0.2221 B(  5-C , 12-H ) :   0.1066 B(  5-C , 14-H ) :   0.1545
B(  5-C , 15-H ) :  -0.2829 B(  6-C ,  7-N ) :   1.1262 B(  6-C , 10-H ) :   0.6040
B(  6-C , 15-H ) :  -0.1124 B(  7-N ,  8-O ) :   0.6785 B(  8-O ,  9-H ) :   0.9894
B( 11-H , 15-H ) :   0.1896

Dispersion correction           -0.027391690
FINAL SINGLE POINT ENERGY      -400.834077035799

DIPOLE MOMENT
-------------

Method             : SCF
Type of density    : Electron Density
Multiplicity       :   1
Irrep              :   0
Energy             :  -400.8066853457717116 Eh
Relativity type    :
Basis              : AO
                                X                 Y                 Z
Electronic contribution:     -2.882933258       0.140154052      -0.001233363
Nuclear contribution   :      3.400872611      -0.275373227       0.003208703
                        -----------------------------------------
Total Dipole Moment    :      0.517939353      -0.135219175       0.001975339
                        -----------------------------------------
Magnitude (a.u.)       :      0.535302999
Magnitude (Debye)      :      1.360632092

VIBRATIONAL FREQUENCIES
-----------------------

Scaling factor for frequencies =  1.000000000  (already applied!)

     0:       0.00 cm**-1
     1:       0.00 cm**-1
     2:       0.00 cm**-1
     3:       0.00 cm**-1
     4:       0.00 cm**-1
     5:       0.00 cm**-1
     6:      64.75 cm**-1
     7:     141.94 cm**-1
     8:     147.78 cm**-1
     9:     308.39 cm**-1
    10:     374.09 cm**-1
    11:     382.11 cm**-1
    12:     412.95 cm**-1
    13:     439.18 cm**-1
    14:     522.26 cm**-1
    15:     629.26 cm**-1
    16:     651.31 cm**-1
    17:     704.33 cm**-1
    18:     776.09 cm**-1
    19:     860.22 cm**-1
    20:     879.43 cm**-1
    21:     941.59 cm**-1
    22:     959.26 cm**-1
    23:     987.11 cm**-1
    24:    1003.11 cm**-1
    25:    1017.55 cm**-1
    26:    1022.65 cm**-1
    27:    1042.70 cm**-1
    28:    1095.85 cm**-1
    29:    1166.03 cm**-1
    30:    1183.00 cm**-1
    31:    1235.01 cm**-1
    32:    1288.02 cm**-1
    33:    1332.23 cm**-1
    34:    1351.91 cm**-1
    35:    1433.08 cm**-1
    36:    1475.60 cm**-1
    37:    1525.49 cm**-1
    38:    1612.09 cm**-1
    39:    1637.32 cm**-1
    40:    1689.99 cm**-1
    41:    3100.85 cm**-1
    42:    3166.36 cm**-1
    43:    3171.97 cm**-1
    44:    3180.24 cm**-1
    45:    3190.63 cm**-1
    46:    3196.58 cm**-1
    47:    3707.03 cm**-1

IR SPECTRUM
-----------

 Mode   freq       eps      Int      T**2         TX        TY        TZ
       cm**-1   L/(mol*cm) km/mol    a.u.
----------------------------------------------------------------------------
  6:     64.75   0.000004    0.02  0.000021  (-0.000565  0.000401  0.004519)
  7:    141.94   0.000305    1.54  0.000670  ( 0.006559 -0.001881 -0.024975)
  8:    147.78   0.000724    3.66  0.001529  (-0.037141  0.008906 -0.008360)
  9:    308.39   0.000308    1.56  0.000311  (-0.000356 -0.000053  0.017643)
 10:    374.09   0.002959   14.95  0.002468  (-0.017708 -0.007725  0.045769)
 11:    382.11   0.034827  176.00  0.028442  ( 0.003674  0.000779  0.168606)
 12:    412.95   0.000612    3.09  0.000463  (-0.000299 -0.000125 -0.021510)
 13:    439.18   0.001237    6.25  0.000879  ( 0.027288 -0.007694 -0.008680)
 14:    522.26   0.003781   19.11  0.002259  (-0.000035  0.000258 -0.047531)
 15:    629.26   0.000003    0.02  0.000002  (-0.001197 -0.000482 -0.000011)
 16:    651.31   0.012429   62.81  0.005955  (-0.076672 -0.008727 -0.000762)
 17:    704.33   0.016501   83.39  0.007311  (-0.000048 -0.000281  0.085505)
 18:    776.09   0.012061   60.95  0.004850  ( 0.000066 -0.000088  0.069638)
 19:    860.22   0.000001    0.00  0.000000  ( 0.000212  0.000094 -0.000357)
 20:    879.43   0.015976   80.73  0.005669  ( 0.074907  0.007595  0.000455)
 21:    941.59   0.000043    0.22  0.000014  (-0.000847  0.000352 -0.003645)
 22:    959.26   0.059888  302.65  0.019482  (-0.136599  0.028690 -0.000224)
 23:    987.11   0.004926   24.89  0.001557  (-0.000420 -0.000353  0.039458)
 24:   1003.11   0.000013    0.07  0.000004  (-0.000071 -0.000389  0.001995)
 25:   1017.55   0.000024    0.12  0.000007  (-0.002034 -0.001826  0.000047)
 26:   1022.65   0.000132    0.67  0.000040  ( 0.000275 -0.000010 -0.006345)
 27:   1042.70   0.001177    5.95  0.000352  ( 0.018207  0.004552 -0.000053)
 28:   1095.85   0.002478   12.52  0.000706  (-0.008678 -0.025106 -0.000050)
 29:   1166.03   0.000097    0.49  0.000026  (-0.004903  0.001423 -0.000032)
 30:   1183.00   0.000203    1.03  0.000054  ( 0.007323  0.000018  0.000027)
 31:   1235.01   0.010263   51.86  0.002593  ( 0.050922  0.000296  0.000095)
 32:   1288.02   0.019834  100.23  0.004805  ( 0.059323  0.035859  0.000563)
 33:   1332.23   0.000484    2.45  0.000113  ( 0.001258 -0.010570 -0.000129)
 34:   1351.91   0.000168    0.85  0.000039  ( 0.001322  0.006086 -0.000003)
 35:   1433.08   0.001390    7.02  0.000303  (-0.017287  0.001909 -0.000348)
 36:   1475.60   0.002874   14.52  0.000608  (-0.007106 -0.023607 -0.000080)
 37:   1525.49   0.002115   10.69  0.000433  ( 0.020795  0.000415  0.000056)
 38:   1612.09   0.000321    1.62  0.000062  ( 0.005725 -0.005418  0.000007)
 39:   1637.32   0.000132    0.67  0.000025  (-0.004192 -0.002747  0.000005)
 40:   1689.99   0.000706    3.57  0.000130  (-0.009641  0.006113 -0.000066)
 41:   3100.85   0.004961   25.07  0.000499  ( 0.013972  0.017436  0.000098)
 42:   3166.36   0.001098    5.55  0.000108  (-0.008039 -0.006602 -0.000098)
 43:   3171.97   0.000205    1.04  0.000020  (-0.004452  0.000597  0.000004)
 44:   3180.24   0.004865   24.59  0.000477  ( 0.008439  0.020154  0.000117)
 45:   3190.63   0.005467   27.63  0.000535  ( 0.017588 -0.015012 -0.000007)
 46:   3196.58   0.002256   11.40  0.000220  (-0.011646 -0.009200 -0.000025)
 47:   3707.03   0.071278  360.21  0.006000  (-0.068061  0.036987  0.000013)

--------------------------
THERMOCHEMISTRY AT 298.15K
--------------------------

Temperature         ...   298.15 K
Pressure            ...     1.00 atm
Total Mass          ...   121.14 AMU
Quasi RRHO          ...     True
Cut-Off Frequency   ...     1.00 cm^-1

Throughout the following assumptions are being made:
  (1) The electronic state is orbitally nondegenerate
  (2) There are no thermally accessible electronically excited states
  (3) Hindered rotations indicated by low frequency modes are not
      treated as such but are treated as vibrations and this may
      cause some error
  (4) All equations used are the standard statistical mechanics
      equations for an ideal gas
  (5) All vibrations are strictly harmonic

freq.      64.75  E(vib)   ...       0.50
freq.     141.94  E(vib)   ...       0.41
freq.     147.78  E(vib)   ...       0.41
freq.     308.39  E(vib)   ...       0.26
freq.     374.09  E(vib)   ...       0.21
freq.     382.11  E(vib)   ...       0.21
freq.     412.95  E(vib)   ...       0.19
freq.     439.18  E(vib)   ...       0.17
freq.     522.26  E(vib)   ...       0.13
freq.     629.26  E(vib)   ...       0.09
freq.     651.31  E(vib)   ...       0.08
freq.     704.33  E(vib)   ...       0.07
freq.     776.09  E(vib)   ...       0.05
freq.     860.22  E(vib)   ...       0.04
freq.     879.43  E(vib)   ...       0.04
freq.     941.59  E(vib)   ...       0.03
freq.     959.26  E(vib)   ...       0.03
freq.     987.11  E(vib)   ...       0.02
freq.    1003.11  E(vib)   ...       0.02
freq.    1017.55  E(vib)   ...       0.02
freq.    1022.65  E(vib)   ...       0.02
freq.    1042.70  E(vib)   ...       0.02
freq.    1095.85  E(vib)   ...       0.02
freq.    1166.03  E(vib)   ...       0.01
freq.    1183.00  E(vib)   ...       0.01
freq.    1235.01  E(vib)   ...       0.01
freq.    1288.02  E(vib)   ...       0.01
freq.    1332.23  E(vib)   ...       0.01
freq.    1351.91  E(vib)   ...       0.01
freq.    1433.08  E(vib)   ...       0.00
freq.    1475.60  E(vib)   ...       0.00
freq.    1525.49  E(vib)   ...       0.00
freq.    1612.09  E(vib)   ...       0.00
freq.    1637.32  E(vib)   ...       0.00
freq.    1689.99  E(vib)   ...       0.00
freq.    3100.85  E(vib)   ...       0.00
freq.    3166.36  E(vib)   ...       0.00
freq.    3171.97  E(vib)   ...       0.00
freq.    3180.24  E(vib)   ...       0.00
freq.    3190.63  E(vib)   ...       0.00
freq.    3196.58  E(vib)   ...       0.00
freq.    3707.03  E(vib)   ...       0.00

------------
INNER ENERGY
------------

The inner energy is: U= E(el) + E(ZPE) + E(vib) + E(rot) + E(trans)
    E(el)   - is the total energy from the electronic structure calculation
              = E(kin-el) + E(nuc-el) + E(el-el) + E(nuc-nuc)
    E(ZPE)  - the the zero temperature vibrational energy from the frequency calculation
    E(vib)  - the the finite temperature correction to E(ZPE) due to population
              of excited vibrational states
    E(rot)  - is the rotational thermal energy
    E(trans)- is the translational thermal energy

Summary of contributions to the inner energy U:
Electronic energy                ...   -400.83407704 Eh
Zero point energy                ...      0.12531603 Eh      78.64 kcal/mol
Thermal vibrational correction   ...      0.00495165 Eh       3.11 kcal/mol
Thermal rotational correction    ...      0.00141627 Eh       0.89 kcal/mol
Thermal translational correction ...      0.00141627 Eh       0.89 kcal/mol
-----------------------------------------------------------------------
Total thermal energy                   -400.70097682 Eh

Summary of corrections to the electronic energy:
(perhaps to be used in another calculation)
Total thermal correction                  0.00778419 Eh       4.88 kcal/mol
Non-thermal (ZPE) correction              0.12531603 Eh      78.64 kcal/mol
-----------------------------------------------------------------------
Total correction                          0.13310022 Eh      83.52 kcal/mol

--------
ENTHALPY
--------

The enthalpy is H = U + kB*T
                kB is Boltzmann's constant
Total thermal energy              ...   -400.70097682 Eh
Thermal Enthalpy correction       ...      0.00094421 Eh       0.59 kcal/mol
-----------------------------------------------------------------------
Total Enthalpy                    ...   -400.70003261 Eh

Note: Only C1 symmetry has been detected, increase convergence thresholds
      if your molecule has a higher symmetry. Symmetry factor of 1.0 is
      used for the rotational entropy correction.

Note: Rotational entropy computed according to Herzberg
Infrared and Raman Spectra, Chapter V,1, Van Nostrand Reinhold, 1945
Point Group:  C1, Symmetry Number:   1
Rotational constants in cm-1:     0.174352     0.029828     0.025471

Vibrational entropy computed according to the QRRHO of S. Grimme
Chem.Eur.J. 2012 18 9955 using a reference frequency of 100.0 cm-1

-------
ENTROPY
-------

The entropy contributions are T*S = T*(S(el)+S(vib)+S(rot)+S(trans))
     S(el)   - electronic entropy
     S(vib)  - vibrational entropy
     S(rot)  - rotational entropy
     S(trans)- translational entropy
The entropies will be listed as multiplied by the temperature to get
units of energy

Electronic entropy                ...      0.00000000 Eh      0.00 kcal/mol
Vibrational entropy               ...      0.00820212 Eh      5.15 kcal/mol
Rotational entropy                ...      0.01372620 Eh      8.61 kcal/mol
Translational entropy             ...      0.01914284 Eh     12.01 kcal/mol
-----------------------------------------------------------------------
Final entropy term                ...      0.04107115 Eh     25.77 kcal/mol

In case the symmetry of your molecule has not been determined correctly
or in case you have a reason to use a different symmetry number we print
out the resulting rotational entropy values for sn=1,12:

 non-linear molecules -----------------------------------
|  sn= 1 | S(rot)=       0.01372620 Eh      8.61 kcal/mol|
|  sn= 2 | S(rot)=       0.01307174 Eh      8.20 kcal/mol|
|  sn= 3 | S(rot)=       0.01268891 Eh      7.96 kcal/mol|
|  sn= 4 | S(rot)=       0.01241728 Eh      7.79 kcal/mol|
|  sn= 5 | S(rot)=       0.01220660 Eh      7.66 kcal/mol|
|  sn= 6 | S(rot)=       0.01203445 Eh      7.55 kcal/mol|
|  sn= 7 | S(rot)=       0.01188890 Eh      7.46 kcal/mol|
|  sn= 8 | S(rot)=       0.01176283 Eh      7.38 kcal/mol|
|  sn= 9 | S(rot)=       0.01165162 Eh      7.31 kcal/mol|
|  sn=10 | S(rot)=       0.01155214 Eh      7.25 kcal/mol|
|  sn=11 | S(rot)=       0.01146215 Eh      7.19 kcal/mol|
|  sn=12 | S(rot)=       0.01137999 Eh      7.14 kcal/mol|
 linear molecules ---------------------------------------
|  Dinfh | S(rot)=       0.00879116 Eh      5.52 kcal/mol|
|  Cinfv | S(rot)=       0.00944562 Eh      5.93 kcal/mol|
 --------------------------------------------------------

                             ****ORCA TERMINATED NORMALLY****
TOTAL RUN TIME: 0 days 0 hours 22 minutes 15 seconds 461 msec
