                         Program Version 6.0.0  -   RELEASE  -
|  1> !r2SCANh aug-cc-pVTZ d3 TightSCF SlowConv RIJCOSX defgrid2
|  2>
|  3> %pal
|  4> nprocs 4
|  5> end
|  6>
|  7> %scf
|  8> MaxIter 1500
|  9> end
| 10>
| 11> %maxcore 3000
| 12>
| 13> !CPCM
| 14> %cpcm smd true
| 15> SMDsolvent "MeCN"
| 16> surfacetype gepol_ses
| 17> rsolv 2.19
| 18> end
| 19>
| 20> * xyz -1 2
| 21> C          -1.37883091856119     -1.21517375011549     -0.00008867448001
| 22> C           0.00729805129085     -1.22295651486138     -0.00028940061097
| 23> C           0.72993387220770     -0.00000590382604     -0.00030312643494
| 24> C           0.00732184530524      1.22296016475999     -0.00010449796565
| 25> C          -1.37880870032056      1.21520147102756      0.00009142728977
| 26> C          -2.06946528458053      0.00001961491822      0.00010470343428
| 27> F          -3.42567015063122      0.00002957691106      0.00031309610633
| 28> H          -1.94941667505959      2.14990360317295      0.00023681861010
| 29> H           0.58443906920603      2.14816924945391     -0.00012002348132
| 30> N           2.11808314940451     -0.00002527989961     -0.00036226373716
| 31> O           2.72387695234489     -1.10771207139848      0.00040597823570
| 32> O           2.72391644246942      1.10763885175707      0.00056138155342
| 33> H           0.58439912932837     -2.14817284604861     -0.00044313878677
| 34> H          -1.94945738240393     -2.14986566585114     -0.00007967973278
| 35> *
| 36>
| 37>                          ****END OF INPUT****

CARTESIAN COORDINATES (ANGSTROEM)
---------------------------------
  C     -1.378831   -1.215174   -0.000089
  C      0.007298   -1.222957   -0.000289
  C      0.729934   -0.000006   -0.000303
  C      0.007322    1.222960   -0.000104
  C     -1.378809    1.215201    0.000091
  C     -2.069465    0.000020    0.000105
  F     -3.425670    0.000030    0.000313
  H     -1.949417    2.149904    0.000237
  H      0.584439    2.148169   -0.000120
  N      2.118083   -0.000025   -0.000362
  O      2.723877   -1.107712    0.000406
  O      2.723916    1.107639    0.000561
  H      0.584399   -2.148173   -0.000443
  H     -1.949457   -2.149866   -0.000080

 Total Charge           Charge          ....   -1
 Multiplicity           Mult            ....    2
 Number of Electrons    NEL             ....   73
 Basis Dimension        Dim             ....  552

ORBITAL ENERGIES
----------------
                 SPIN UP ORBITALS
  NO   OCC          E(Eh)            E(eV)
   0   1.0000     -24.680789      -671.5984
   1   1.0000     -19.066211      -518.8180
   2   1.0000     -19.066205      -518.8178
   3   1.0000     -14.435618      -392.8131
   4   1.0000     -10.229330      -278.3542
   5   1.0000     -10.176749      -276.9234
   6   1.0000     -10.157127      -276.3895
   7   1.0000     -10.157125      -276.3894
   8   1.0000     -10.154437      -276.3163
   9   1.0000     -10.154432      -276.3161
  10   1.0000      -1.226528       -33.3755
  11   1.0000      -1.135711       -30.9043
  12   1.0000      -0.961726       -26.1699
  13   1.0000      -0.855493       -23.2791
  14   1.0000      -0.772338       -21.0164
  15   1.0000      -0.744721       -20.2649
  16   1.0000      -0.667287       -18.1578
  17   1.0000      -0.605190       -16.4681
  18   1.0000      -0.563580       -15.3358
  19   1.0000      -0.527337       -14.3496
  20   1.0000      -0.487282       -13.2596
  21   1.0000      -0.476448       -12.9648
  22   1.0000      -0.467338       -12.7169
  23   1.0000      -0.455840       -12.4040
  24   1.0000      -0.430825       -11.7234
  25   1.0000      -0.424458       -11.5501
  26   1.0000      -0.406006       -11.0480
  27   1.0000      -0.389081       -10.5874
  28   1.0000      -0.378430       -10.2976
  29   1.0000      -0.346713        -9.4345
  30   1.0000      -0.316375        -8.6090
  31   1.0000      -0.261815        -7.1244
  32   1.0000      -0.250129        -6.8064
  33   1.0000      -0.243708        -6.6316
  34   1.0000      -0.239565        -6.5189
  35   1.0000      -0.215781        -5.8717
  36   1.0000      -0.112803        -3.0695
  37   0.0000      -0.022602        -0.6150
  38   0.0000       0.011224         0.3054
  39   0.0000       0.013252         0.3606
  40   0.0000       0.025636         0.6976
  41   0.0000       0.027300         0.7429

                 SPIN DOWN ORBITALS
  NO   OCC          E(Eh)            E(eV)
   0   1.0000     -24.679851      -671.5729
   1   1.0000     -19.059838      -518.6446
   2   1.0000     -19.059833      -518.6444
   3   1.0000     -14.426071      -392.5533
   4   1.0000     -10.225066      -278.2382
   5   1.0000     -10.177436      -276.9421
   6   1.0000     -10.159051      -276.4418
   7   1.0000     -10.159050      -276.4418
   8   1.0000     -10.151422      -276.2342
   9   1.0000     -10.151419      -276.2342
  10   1.0000      -1.224678       -33.3252
  11   1.0000      -1.123171       -30.5630
  12   1.0000      -0.951856       -25.9013
  13   1.0000      -0.852447       -23.1963
  14   1.0000      -0.765606       -20.8332
  15   1.0000      -0.742761       -20.2116
  16   1.0000      -0.654723       -17.8159
  17   1.0000      -0.603064       -16.4102
  18   1.0000      -0.559903       -15.2357
  19   1.0000      -0.525829       -14.3085
  20   1.0000      -0.479821       -13.0566
  21   1.0000      -0.474812       -12.9203
  22   1.0000      -0.448968       -12.2170
  23   1.0000      -0.427740       -11.6394
  24   1.0000      -0.424657       -11.5555
  25   1.0000      -0.423423       -11.5219
  26   1.0000      -0.405644       -11.0381
  27   1.0000      -0.387017       -10.5313
  28   1.0000      -0.377344       -10.2681
  29   1.0000      -0.337400        -9.1811
  30   1.0000      -0.315537        -8.5862
  31   1.0000      -0.249978        -6.8022
  32   1.0000      -0.238334        -6.4854
  33   1.0000      -0.226504        -6.1635
  34   1.0000      -0.219033        -5.9602
  35   1.0000      -0.210045        -5.7156
  36   0.0000      -0.046790        -1.2732
  37   0.0000      -0.016767        -0.4563
  38   0.0000       0.012897         0.3510
  39   0.0000       0.026789         0.7290
  40   0.0000       0.028455         0.7743

MULLIKEN ATOMIC CHARGES AND SPIN POPULATIONS
--------------------------------------------
   0 C :   -0.618981   -0.165928
   1 C :   -0.461748    0.259098
   2 C :    0.320298   -0.132305
   3 C :   -0.462097    0.259102
   4 C :   -0.619664   -0.165923
   5 C :    0.635174    0.263501
   6 F :   -0.491987    0.017247
   7 H :    0.327074   -0.002391
   8 H :    0.595685   -0.005761
   9 N :    0.611860    0.233374
  10 O :   -0.878935    0.224072
  11 O :   -0.878876    0.224071
  12 H :    0.595248   -0.005767
  13 H :    0.326950   -0.002389
Sum of atomic charges         :   -1.0000000

LOEWDIN ATOMIC CHARGES AND SPIN POPULATIONS
-------------------------------------------
   0 C :    0.152014    0.000814
   1 C :    0.156718    0.074366
   2 C :   -0.332169    0.052555
   3 C :    0.156720    0.074367
   4 C :    0.152012    0.000814
   5 C :   -0.557509    0.094282
   6 F :    0.493586    0.032191
   7 H :   -0.179922   -0.009149
   8 H :   -0.219878    0.019520
   9 N :   -0.873429    0.248153
  10 O :    0.225831    0.200858
  11 O :    0.225831    0.200859
  12 H :   -0.219884    0.019520
  13 H :   -0.179920   -0.009149

  Mayer bond orders larger than 0.100000
B(  0-C ,  1-C ) :   1.2477 B(  0-C ,  2-C ) :  -0.3341 B(  0-C ,  4-C ) :   0.1371
B(  0-C ,  5-C ) :   1.2564 B(  0-C ,  6-F ) :   0.1627 B(  0-C , 13-H ) :   0.7361
B(  1-C ,  2-C ) :   0.8338 B(  1-C ,  3-C ) :   0.2284 B(  1-C ,  9-N ) :  -0.2739
B(  1-C , 12-H ) :   0.2442 B(  2-C ,  3-C ) :   0.8339 B(  2-C ,  4-C ) :  -0.3339
B(  2-C ,  9-N ) :   1.3302 B(  2-C , 10-O ) :   0.3272 B(  2-C , 11-O ) :   0.3265
B(  3-C ,  4-C ) :   1.2479 B(  3-C ,  8-H ) :   0.2428 B(  3-C ,  9-N ) :  -0.2741
B(  4-C ,  5-C ) :   1.2559 B(  4-C ,  6-F ) :   0.1627 B(  4-C ,  7-H ) :   0.7361
B(  5-C ,  6-F ) :   0.1617 B(  6-F ,  7-H ) :   0.1348 B(  6-F , 13-H ) :   0.1349
B(  9-N , 10-O ) :   0.8282 B(  9-N , 11-O ) :   0.8286

Dispersion correction           -0.004397351
FINAL SINGLE POINT ENERGY      -536.025871272914

DIPOLE MOMENT
-------------

Method             : SCF
Type of density    : Electron Density
Multiplicity       :   2
Irrep              :   0
Energy             :  -536.0214739217616398 Eh
Relativity type    :
Basis              : AO
                                X                 Y                 Z
Electronic contribution:     -4.473532743       0.000040678      -0.001094196
Nuclear contribution   :      0.705808692       0.000011450      -0.000838371
                        -----------------------------------------
Total Dipole Moment    :     -3.767724052       0.000052128      -0.001932567
                        -----------------------------------------
Magnitude (a.u.)       :      3.767724548
Magnitude (Debye)      :      9.576794720

Rotational constants in cm-1:             0.130395             0.026545             0.022055
Rotational constants in MHz :          3909.135354           795.801666           661.198337

                             ****ORCA TERMINATED NORMALLY****
TOTAL RUN TIME: 0 days 0 hours 5 minutes 6 seconds 63 msec
