                         Program Version 6.0.0  -   RELEASE  -
|  1> !PBE0 aug-cc-pVTZ d3 TightSCF SlowConv RIJCOSX defgrid2
|  2>
|  3> %pal
|  4> nprocs 4
|  5> end
|  6>
|  7> %scf
|  8> MaxIter 1500
|  9> end
| 10>
| 11> %maxcore 3000
| 12>
| 13> !CPCM
| 14> %cpcm smd true
| 15> SMDsolvent "MeCN"
| 16> surfacetype gepol_ses
| 17> rsolv 2.19
| 18> end
| 19>
| 20> * xyz 1 2
| 21> C          -1.94605217400678     -1.14602633273004     -0.31228004530400
| 22> C          -1.27946551773851      0.24408441077832     -0.20897492502665
| 23> N           0.01600699561608      0.06744351701809      0.39029195846881
| 24> H           0.06265782979012      0.05391117721033      1.41697390045102
| 25> C           1.25148854883622     -0.09172311464903     -0.32836866073256
| 26> C           1.90177624486915      1.30323669855352     -0.46614331567862
| 27> H           2.17456664951472      1.71255161234552      0.52069722483394
| 28> H           1.23681825466419      2.01161865664215     -0.98621902186020
| 29> H           2.82142391902319      1.18450836803534     -1.06306170139066
| 30> C           2.15574014749067     -1.09567716286551      0.37361772774099
| 31> H           1.67553906419562     -2.08461070530957      0.45496677186850
| 32> H           3.08166929363866     -1.21369164664504     -0.21208064192341
| 33> H           2.44114524539303     -0.74645819923523      1.38177992392114
| 34> H           0.97579493542327     -0.44455026880370     -1.33762113459450
| 35> C          -2.11057591663361      1.23704215369463      0.59223096402592
| 36> H          -1.61862942705056      2.22182755506889      0.65043188583308
| 37> H          -2.30656920422753      0.86778750595824      1.61446351535389
| 38> H          -3.08448029295519      1.37194719861582      0.09450678436786
| 39> H          -1.09645939641756      0.61566302218729     -1.23236453185842
| 40> H          -1.33402126313580     -1.84665456543689     -0.90298607858241
| 41> H          -2.12992557602449     -1.57272950513057      0.68767946741479
| 42> H          -2.91556146026488     -1.01417817530256     -0.82104716732853
| 43> *
| 44>
| 45>                          ****END OF INPUT****

CARTESIAN COORDINATES (ANGSTROEM)
---------------------------------
  C     -1.946052   -1.146026   -0.312280
  C     -1.279466    0.244084   -0.208975
  N      0.016007    0.067444    0.390292
  H      0.062658    0.053911    1.416974
  C      1.251489   -0.091723   -0.328369
  C      1.901776    1.303237   -0.466143
  H      2.174567    1.712552    0.520697
  H      1.236818    2.011619   -0.986219
  H      2.821424    1.184508   -1.063062
  C      2.155740   -1.095677    0.373618
  H      1.675539   -2.084611    0.454967
  H      3.081669   -1.213692   -0.212081
  H      2.441145   -0.746458    1.381780
  H      0.975795   -0.444550   -1.337621
  C     -2.110576    1.237042    0.592231
  H     -1.618629    2.221828    0.650432
  H     -2.306569    0.867788    1.614464
  H     -3.084480    1.371947    0.094507
  H     -1.096459    0.615663   -1.232365
  H     -1.334021   -1.846655   -0.902986
  H     -2.129926   -1.572730    0.687679
  H     -2.915561   -1.014178   -0.821047

 Total Charge           Charge          ....    1
 Multiplicity           Mult            ....    2
 Number of Electrons    NEL             ....   57
 Basis Dimension        Dim             ....  667

ORBITAL ENERGIES
----------------
                 SPIN UP ORBITALS
  NO   OCC          E(Eh)            E(eV)
   0   1.0000     -14.521190      -395.1417
   1   1.0000     -10.302630      -280.3488
   2   1.0000     -10.302490      -280.3450
   3   1.0000     -10.240090      -278.6470
   4   1.0000     -10.240017      -278.6450
   5   1.0000     -10.232808      -278.4489
   6   1.0000     -10.232631      -278.4440
   7   1.0000      -1.046238       -28.4696
   8   1.0000      -0.858409       -23.3585
   9   1.0000      -0.791241       -21.5308
  10   1.0000      -0.732171       -19.9234
  11   1.0000      -0.726758       -19.7761
  12   1.0000      -0.663095       -18.0437
  13   1.0000      -0.653927       -17.7943
  14   1.0000      -0.547808       -14.9066
  15   1.0000      -0.526198       -14.3186
  16   1.0000      -0.508799       -13.8451
  17   1.0000      -0.479914       -13.0591
  18   1.0000      -0.465509       -12.6671
  19   1.0000      -0.438144       -11.9225
  20   1.0000      -0.424845       -11.5606
  21   1.0000      -0.415093       -11.2953
  22   1.0000      -0.409246       -11.1362
  23   1.0000      -0.395358       -10.7582
  24   1.0000      -0.392337       -10.6760
  25   1.0000      -0.378582       -10.3017
  26   1.0000      -0.376561       -10.2467
  27   1.0000      -0.373982       -10.1766
  28   1.0000      -0.325990        -8.8706
  29   0.0000      -0.001826        -0.0497
  30   0.0000       0.010998         0.2993
  31   0.0000       0.012814         0.3487
  32   0.0000       0.014088         0.3834
  33   0.0000       0.032367         0.8807

                 SPIN DOWN ORBITALS
  NO   OCC          E(Eh)            E(eV)
   0   1.0000     -14.501826      -394.6147
   1   1.0000     -10.303014      -280.3593
   2   1.0000     -10.302875      -280.3555
   3   1.0000     -10.238208      -278.5958
   4   1.0000     -10.238143      -278.5940
   5   1.0000     -10.232293      -278.4349
   6   1.0000     -10.232128      -278.4303
   7   1.0000      -1.009342       -27.4656
   8   1.0000      -0.853962       -23.2375
   9   1.0000      -0.778181       -21.1754
  10   1.0000      -0.726200       -19.7609
  11   1.0000      -0.723172       -19.6785
  12   1.0000      -0.655074       -17.8255
  13   1.0000      -0.649892       -17.6845
  14   1.0000      -0.539290       -14.6748
  15   1.0000      -0.519774       -14.1438
  16   1.0000      -0.476198       -12.9580
  17   1.0000      -0.474423       -12.9097
  18   1.0000      -0.457891       -12.4598
  19   1.0000      -0.434455       -11.8221
  20   1.0000      -0.418895       -11.3987
  21   1.0000      -0.411558       -11.1991
  22   1.0000      -0.406727       -11.0676
  23   1.0000      -0.390304       -10.6207
  24   1.0000      -0.383779       -10.4432
  25   1.0000      -0.375611       -10.2209
  26   1.0000      -0.372297       -10.1307
  27   1.0000      -0.370997       -10.0953
  28   0.0000      -0.164954        -4.4886
  29   0.0000      -0.001234        -0.0336
  30   0.0000       0.011579         0.3151
  31   0.0000       0.013069         0.3556
  32   0.0000       0.015084         0.4105

MULLIKEN ATOMIC CHARGES AND SPIN POPULATIONS
--------------------------------------------
   0 C :   -0.900437    0.096817
   1 C :    0.553908   -0.106163
   2 N :   -0.046557    0.908113
   3 H :    0.172435   -0.028004
   4 C :    0.542383   -0.107254
   5 C :   -0.894119    0.097149
   6 H :    0.241177    0.005887
   7 H :    0.256101   -0.001189
   8 H :    0.236396    0.017303
   9 C :   -0.953720    0.034294
  10 H :    0.231822    0.000220
  11 H :    0.250925    0.005089
  12 H :    0.249765    0.001002
  13 H :    0.272442    0.007197
  14 C :   -0.954960    0.034657
  15 H :    0.227863    0.000262
  16 H :    0.248611    0.001026
  17 H :    0.253497    0.005130
  18 H :    0.280724    0.006645
  19 H :    0.253632   -0.001026
  20 H :    0.240811    0.005631
  21 H :    0.237303    0.017214
Sum of atomic charges         :    1.0000000

LOEWDIN ATOMIC CHARGES AND SPIN POPULATIONS
-------------------------------------------
   0 C :    0.631940    0.049417
   1 C :   -0.099795    0.096149
   2 N :    0.708664    0.537716
   3 H :   -0.151071    0.070182
   4 C :   -0.099948    0.096395
   5 C :    0.632053    0.049613
   6 H :   -0.137460    0.004491
   7 H :   -0.140022    0.003952
   8 H :   -0.136328    0.013257
   9 C :    0.620321    0.015531
  10 H :   -0.140013    0.001705
  11 H :   -0.139519    0.003597
  12 H :   -0.137322    0.000884
  13 H :   -0.100435    0.006799
  14 C :    0.620239    0.015804
  15 H :   -0.140131    0.001732
  16 H :   -0.137419    0.000903
  17 H :   -0.139395    0.003692
  18 H :   -0.100445    0.006566
  19 H :   -0.140102    0.003941
  20 H :   -0.137395    0.004462
  21 H :   -0.136419    0.013212

  Mayer bond orders larger than 0.100000
B(  0-C ,  1-C ) :   0.7734 B(  0-C ,  2-N ) :   0.1066 B(  0-C , 14-C ) :   0.1198
B(  0-C , 19-H ) :   0.9388 B(  0-C , 20-H ) :   0.9456 B(  0-C , 21-H ) :   0.9674
B(  1-C ,  2-N ) :   0.8411 B(  1-C , 14-C ) :   0.7424 B(  1-C , 18-H ) :   0.8882
B(  2-N ,  3-H ) :   0.8838 B(  2-N ,  4-C ) :   0.8565 B(  2-N ,  5-C ) :   0.1077
B(  4-C ,  5-C ) :   0.7834 B(  4-C ,  9-C ) :   0.7407 B(  4-C , 13-H ) :   0.8930
B(  5-C ,  6-H ) :   0.9448 B(  5-C ,  7-H ) :   0.9349 B(  5-C ,  8-H ) :   0.9679
B(  5-C ,  9-C ) :   0.1173 B(  9-C , 10-H ) :   0.9656 B(  9-C , 11-H ) :   0.9611
B(  9-C , 12-H ) :   0.9369 B( 14-C , 15-H ) :   0.9700 B( 14-C , 16-H ) :   0.9381
B( 14-C , 17-H ) :   0.9563

Dispersion correction           -0.015608563
FINAL SINGLE POINT ENERGY      -291.995817634784

DIPOLE MOMENT
-------------

Method             : SCF
Type of density    : Electron Density
Multiplicity       :   2
Irrep              :   0
Energy             :  -291.9802090717134320 Eh
Relativity type    :
Basis              : AO
                                X                 Y                 Z
Electronic contribution:      0.011572423      -0.012201140       0.216506955
Nuclear contribution   :      0.001368449       0.006688621       0.038653602
                        -----------------------------------------
Total Dipole Moment    :      0.012940872      -0.005512519       0.255160557
                        -----------------------------------------
Magnitude (a.u.)       :      0.255547968
Magnitude (Debye)      :      0.649551313

Rotational constants in cm-1:             0.132886             0.050590             0.041714
Rotational constants in MHz :          3983.810476          1516.635197          1250.539791

                             ****ORCA TERMINATED NORMALLY****
TOTAL RUN TIME: 0 days 0 hours 5 minutes 28 seconds 160 msec
