                         Program Version 6.0.0  -   RELEASE  -
|  1> !r2SCANh opt aug-cc-pVTZ d3 TightSCF SlowConv RIJCOSX defgrid2
|  2>
|  3> %pal
|  4> nprocs 8
|  5> end
|  6>
|  7> %scf
|  8> MaxIter 1500
|  9> end
| 10>
| 11> %maxcore 3500
| 12>
| 13> !CPCM
| 14> %cpcm smd true
| 15> SMDsolvent "MeCN"
| 16> surfacetype gepol_ses
| 17> rsolv 2.19
| 18> end
| 19>
| 20> * xyz -1 2
| 21> C           0.68315502285048     -1.23058998559791     -0.00197785400563
| 22> C          -0.69097039389614     -1.22820808682412     -0.00110778792906
| 23> C          -1.39878915837568      0.00192561974512      0.00006123035750
| 24> C          -0.67088260295619      1.21697689217912      0.00034729291936
| 25> C           0.70599002665524      1.19710781410292     -0.00056169847882
| 26> C           1.43890972865005     -0.02356673016238     -0.00174160392592
| 27> C           2.88835051512998     -0.09555430971111     -0.00265662366589
| 28> O           3.51113560358604     -1.16132419888811     -0.00429988492646
| 29> C           3.67215429347512      1.21312233920081     -0.00319382492201
| 30> H           3.44490427270519      1.82862721041062      0.88658626511100
| 31> H           4.74564035342603      0.96713680695522     -0.00513239151038
| 32> H           3.44193148262032      1.82994436135706     -0.89128425723845
| 33> H           1.24130264942652      2.15210104681416     -0.00032125400509
| 34> H          -1.23634900308120      2.15002194871812      0.00128004669295
| 35> N          -2.79949677516438      0.01738261553575      0.00104508920787
| 36> O          -3.38660343043673      1.11542368371417      0.00320409549424
| 37> O          -3.41030224545591     -1.06695584054066      0.00182719273433
| 38> H          -1.27295707729704     -2.15125183977829     -0.00128101747157
| 39> H           1.24384223813830     -2.16976914723049     -0.00287851443797
| 40> *
| 41>
| 42>                          ****END OF INPUT****
 Total Charge           Charge          ....   -1
 Multiplicity           Mult            ....    2
 Number of Electrons    NEL             ....   87
Dispersion correction           -0.006582556
FINAL SINGLE POINT ENERGY      -589.424340385054
Dispersion correction             ... done (  0.1 sec)
Dispersion correction           -0.006601426
FINAL SINGLE POINT ENERGY      -589.426504586232
Dispersion correction             ... done (  0.1 sec)
Dispersion correction           -0.006606808
FINAL SINGLE POINT ENERGY      -589.426811818281
Dispersion correction             ... done (  0.0 sec)
FINAL SINGLE POINT ENERGY      -589.426791464851
Dispersion correction             ... done (  0.1 sec)
Dispersion correction           -0.006605296
FINAL SINGLE POINT ENERGY      -589.426876455653
Dispersion correction             ... done (  0.0 sec)
Dispersion correction           -0.006605003
FINAL SINGLE POINT ENERGY      -589.426879230739
Dispersion correction             ... done (  0.1 sec)
                    ***********************HURRAY********************

CARTESIAN COORDINATES (ANGSTROEM)
---------------------------------
  C      0.683916   -1.226552   -0.002667
  C     -0.686470   -1.222481   -0.001291
  C     -1.384970    0.004414    0.000015
  C     -0.659938    1.213539   -0.001200
  C      0.713562    1.188403   -0.002563
  C      1.429019   -0.027233   -0.003082
  C      2.886289   -0.082999   -0.003934
  O      3.491640   -1.157642   -0.005134
  C      3.658383    1.211487   -0.001765
  H      3.418543    1.812049    0.877054
  H      4.722378    0.991766   -0.003715
  H      3.416358    1.816520   -0.876798
  H      1.247519    2.128571   -0.003490
  H     -1.201015    2.146817   -0.000724
  N     -2.772210    0.019665    0.002765
  O     -3.380149    1.131649    0.003999
  O     -3.404622   -1.078647    0.004727
  H     -1.250108   -2.142613   -0.000936
  H      1.222843   -2.164163   -0.003347

 Multiplicity           Mult            ....    2
 Number of Electrons    NEL             ....   87
 Basis Dimension        Dim             ....  713

ORBITAL ENERGIES
----------------
                 SPIN UP ORBITALS
  NO   OCC          E(Eh)            E(eV)
   0   1.0000     -19.083783      -519.2961
   1   1.0000     -19.083576      -519.2905
   2   1.0000     -19.080567      -519.2086
   3   1.0000     -14.460176      -393.4814
   4   1.0000     -10.221499      -278.1411
   5   1.0000     -10.184631      -277.1379
   6   1.0000     -10.154446      -276.3165
   7   1.0000     -10.151265      -276.2300
   8   1.0000     -10.150762      -276.2163
   9   1.0000     -10.150616      -276.2123
  10   1.0000     -10.150451      -276.2078
  11   1.0000     -10.135439      -275.7993
  12   1.0000      -1.149073       -31.2679
  13   1.0000      -1.018765       -27.7220
  14   1.0000      -0.973814       -26.4988
  15   1.0000      -0.861545       -23.4438
  16   1.0000      -0.789971       -21.4962
  17   1.0000      -0.746610       -20.3163
  18   1.0000      -0.728411       -19.8211
  19   1.0000      -0.679377       -18.4868
  20   1.0000      -0.593280       -16.1440
  21   1.0000      -0.579061       -15.7571
  22   1.0000      -0.535335       -14.5672
  23   1.0000      -0.502124       -13.6635
  24   1.0000      -0.476777       -12.9738
  25   1.0000      -0.466472       -12.6934
  26   1.0000      -0.454771       -12.3749
  27   1.0000      -0.429181       -11.6786
  28   1.0000      -0.425767       -11.5857
  29   1.0000      -0.421984       -11.4828
  30   1.0000      -0.405786       -11.0420
  31   1.0000      -0.388076       -10.5601
  32   1.0000      -0.381819       -10.3898
  33   1.0000      -0.362015        -9.8509
  34   1.0000      -0.351702        -9.5703
  35   1.0000      -0.334047        -9.0899
  36   1.0000      -0.316140        -8.6026
  37   1.0000      -0.269573        -7.3355
  38   1.0000      -0.257912        -7.0181
  39   1.0000      -0.254744        -6.9319
  40   1.0000      -0.252183        -6.8623
  41   1.0000      -0.228342        -6.2135
  42   1.0000      -0.226637        -6.1671
  43   1.0000      -0.131146        -3.5687
  44   0.0000      -0.045257        -1.2315
  45   0.0000      -0.016485        -0.4486
  46   0.0000       0.008689         0.2364
  47   0.0000       0.022336         0.6078
  48   0.0000       0.025844         0.7033

                 SPIN DOWN ORBITALS
  NO   OCC          E(Eh)            E(eV)
   0   1.0000     -19.078182      -519.1437
   1   1.0000     -19.078060      -519.1404
   2   1.0000     -19.077445      -519.1237
   3   1.0000     -14.453731      -393.3060
   4   1.0000     -10.220851      -278.1235
   5   1.0000     -10.183836      -277.1163
   6   1.0000     -10.155200      -276.3371
   7   1.0000     -10.151714      -276.2422
   8   1.0000     -10.149100      -276.1710
   9   1.0000     -10.148817      -276.1633
  10   1.0000     -10.147783      -276.1352
  11   1.0000     -10.135505      -275.8011
  12   1.0000      -1.139311       -31.0022
  13   1.0000      -1.013813       -27.5872
  14   1.0000      -0.965014       -26.2594
  15   1.0000      -0.857949       -23.3460
  16   1.0000      -0.782660       -21.2973
  17   1.0000      -0.743978       -20.2447
  18   1.0000      -0.724803       -19.7229
  19   1.0000      -0.671380       -18.2692
  20   1.0000      -0.592761       -16.1298
  21   1.0000      -0.574009       -15.6196
  22   1.0000      -0.533150       -14.5078
  23   1.0000      -0.496194       -13.5021
  24   1.0000      -0.462982       -12.5984
  25   1.0000      -0.452418       -12.3109
  26   1.0000      -0.446582       -12.1521
  27   1.0000      -0.426038       -11.5931
  28   1.0000      -0.424148       -11.5416
  29   1.0000      -0.415930       -11.3180
  30   1.0000      -0.405181       -11.0255
  31   1.0000      -0.386525       -10.5179
  32   1.0000      -0.380981       -10.3670
  33   1.0000      -0.354326        -9.6417
  34   1.0000      -0.350412        -9.5352
  35   1.0000      -0.323375        -8.7995
  36   1.0000      -0.315568        -8.5870
  37   1.0000      -0.253019        -6.8850
  38   1.0000      -0.250660        -6.8208
  39   1.0000      -0.236939        -6.4474
  40   1.0000      -0.233200        -6.3457
  41   1.0000      -0.224880        -6.1193
  42   1.0000      -0.222402        -6.0519
  43   0.0000      -0.081228        -2.2103
  44   0.0000      -0.018874        -0.5136
  45   0.0000      -0.013505        -0.3675
  46   0.0000       0.009933         0.2703
  47   0.0000       0.023324         0.6347

MULLIKEN ATOMIC CHARGES AND SPIN POPULATIONS
--------------------------------------------
   0 C :   -0.921006   -0.063651
   1 C :   -0.384761    0.135455
   2 C :    0.536702   -0.038620
   3 C :   -0.673757    0.147833
   4 C :   -0.361989   -0.064949
   5 C :    1.364333    0.229601
   6 C :    0.689820    0.032226
   7 O :   -1.029452    0.099804
   8 C :   -0.602586   -0.016669
   9 H :    0.247123    0.006139
  10 H :    0.171872   -0.001954
  11 H :    0.246700    0.006129
  12 H :   -0.076304   -0.006975
  13 H :    0.440320    0.002659
  14 N :    0.511088    0.167105
  15 O :   -0.819570    0.186784
  16 O :   -0.818800    0.189515
  17 H :    0.511381   -0.000058
  18 H :   -0.031114   -0.010374
Sum of atomic charges         :   -1.0000000

LOEWDIN ATOMIC CHARGES AND SPIN POPULATIONS
-------------------------------------------
   0 C :    0.177160    0.018890
   1 C :    0.183995    0.050964
   2 C :   -0.310660    0.065942
   3 C :    0.188829    0.056903
   4 C :    0.187896    0.021430
   5 C :   -0.160318    0.086820
   6 C :   -0.587225    0.060981
   7 O :    0.436109    0.082631
   8 C :    0.560289    0.007832
   9 H :   -0.170942    0.001883
  10 H :   -0.190472   -0.000142
  11 H :   -0.171265    0.001877
  12 H :   -0.194032   -0.002086
  13 H :   -0.217403    0.012551
  14 N :   -0.829113    0.189226
  15 O :    0.257713    0.166639
  16 O :    0.257941    0.168790
  17 H :   -0.218101    0.011109
  18 H :   -0.200400   -0.002239

  Mayer bond orders larger than 0.100000
B(  0-C ,  1-C ) :   1.4238 B(  0-C ,  2-C ) :  -0.3887 B(  0-C ,  3-C ) :  -0.1122
B(  0-C ,  4-C ) :  -0.5096 B(  0-C ,  6-C ) :   0.2965 B(  0-C , 12-H ) :   0.1032
B(  0-C , 16-O ) :  -0.1457 B(  0-C , 18-H ) :   1.3521 B(  1-C ,  2-C ) :   0.7670
B(  1-C ,  3-C ) :   0.1970 B(  1-C ,  4-C ) :  -0.2526 B(  1-C ,  5-C ) :   0.2788
B(  1-C , 14-N ) :  -0.1772 B(  1-C , 17-H ) :   0.3265 B(  2-C ,  3-C ) :   0.6000
B(  2-C ,  4-C ) :  -0.3048 B(  2-C , 14-N ) :   1.3888 B(  2-C , 15-O ) :   0.4010
B(  2-C , 16-O ) :   0.4203 B(  2-C , 17-H ) :   0.1051 B(  3-C ,  4-C ) :   0.9427
B(  3-C ,  5-C ) :   0.3064 B(  3-C , 13-H ) :   0.4326 B(  3-C , 14-N ) :  -0.2478
B(  4-C ,  5-C ) :   0.3037 B(  4-C ,  6-C ) :   0.1830 B(  4-C , 12-H ) :   1.5548
B(  4-C , 15-O ) :  -0.1324 B(  5-C ,  6-C ) :   0.3301 B(  5-C ,  7-O ) :   0.2354
B(  5-C , 12-H ) :  -0.3024 B(  5-C , 18-H ) :  -0.1995 B(  6-C ,  7-O ) :   0.7424
B(  6-C ,  8-C ) :   0.9138 B(  7-O , 18-H ) :   0.1637 B(  8-C ,  9-H ) :   0.9732
B(  8-C , 10-H ) :   0.9542 B(  8-C , 11-H ) :   0.9739 B( 12-H , 18-H ) :   0.1105
B( 14-N , 15-O ) :   0.8550 B( 14-N , 16-O ) :   0.8568 B( 15-O , 16-O ) :   0.1059

Dispersion correction           -0.006604756
FINAL SINGLE POINT ENERGY      -589.426879755261

DIPOLE MOMENT
-------------

Method             : SCF
Type of density    : Electron Density
Multiplicity       :   2
Irrep              :   0
Energy             :  -589.4202749989347012 Eh
Relativity type    :
Basis              : AO
                                X                 Y                 Z
Electronic contribution:     -7.566517073      -2.943199790       0.002433117
Nuclear contribution   :     10.800752325       4.291315481      -0.006585737
                        -----------------------------------------
Total Dipole Moment    :      3.234235252       1.348115691      -0.004152620
                        -----------------------------------------
Magnitude (a.u.)       :      3.503956453
Magnitude (Debye)      :      8.906349504

Rotational constants in cm-1:             0.095413             0.015969             0.013714
Rotational constants in MHz :          2860.415291           478.746937           411.142043

                             ****ORCA TERMINATED NORMALLY****
TOTAL RUN TIME: 0 days 0 hours 51 minutes 22 seconds 806 msec
