                         Program Version 6.0.0  -   RELEASE  -
|  1> !r2SCANh opt aug-cc-pVTZ d3 TightSCF SlowConv RIJCOSX defgrid2
|  2>
|  3> %pal
|  4> nprocs 8
|  5> end
|  6>
|  7> %scf
|  8> MaxIter 1500
|  9> end
| 10>
| 11> %maxcore 3500
| 12>
| 13> !CPCM
| 14> %cpcm smd true
| 15> SMDsolvent "MeCN"
| 16> surfacetype gepol_ses
| 17> rsolv 2.19
| 18> end
| 19>
| 20> * xyz 1 2
| 21> C          -0.34270275561118      0.84711240516987     -0.00000461392678
| 22> C          -1.62114214149599      0.28310666085248      0.00005036258773
| 23> C          -1.76655845984461     -1.14534797316706      0.00015902441429
| 24> C          -0.64047775510568     -1.96124661886859      0.00020951229865
| 25> C           0.62711717490611     -1.39778631503778      0.00015498102973
| 26> C           0.79382657036915      0.03758278475822      0.00002872344792
| 27> C           2.09240943022637      0.64547974379403     -0.00003830185520
| 28> C           3.29430838690790     -0.01032166453559      0.00000281703843
| 29> C           4.60760132054960      0.65947907504340     -0.00004889316533
| 30> H           5.19809781171836      0.33504540056372     -0.87962451212125
| 31> H           5.19805381830583      0.33523637975460      0.87962749612829
| 32> H           4.53047503370681      1.75742824935659     -0.00016451192059
| 33> H           3.31318609028762     -1.10737767604801      0.00008430734855
| 34> H           2.10926613216247      1.74179274962735     -0.00012792598686
| 35> H           1.50121349078302     -2.05141955010833      0.00019397364887
| 36> H          -0.75915141594404     -3.04749102718735      0.00029347430122
| 37> H          -2.76100240605802     -1.59669233225998      0.00020413991672
| 38> O          -2.63949171539410      1.10870001849501     -0.00000818654028
| 39> C          -3.98618237230029      0.65565691136091      0.00006847700849
| 40> H          -4.60288239689184      1.56371892248403      0.00002378375357
| 41> H          -4.19996760244314      0.06636471722196      0.90775693220812
| 42> H          -4.20002007511970      0.06623874429631     -0.90752475328728
| 43> H          -0.25881356371464      1.93607439443420     -0.00008040632701
| 44> *
| 45>
| 46>                          ****END OF INPUT****
 Total Charge           Charge          ....    1
 Multiplicity           Mult            ....    2
 Number of Electrons    NEL             ....   79
Dispersion correction           -0.007261354
FINAL SINGLE POINT ENERGY      -463.176142113086
Dispersion correction             ... done (  0.1 sec)
Dispersion correction           -0.007303188
FINAL SINGLE POINT ENERGY      -463.178332438240
Dispersion correction             ... done (  0.0 sec)
Dispersion correction           -0.007311253
FINAL SINGLE POINT ENERGY      -463.178449323920
Dispersion correction             ... done (  0.1 sec)
Dispersion correction           -0.007312659
FINAL SINGLE POINT ENERGY      -463.178484704963
Dispersion correction             ... done (  0.1 sec)
Dispersion correction           -0.007311791
FINAL SINGLE POINT ENERGY      -463.178490963413
Dispersion correction             ... done (  0.1 sec)
                    ***********************HURRAY********************

CARTESIAN COORDINATES (ANGSTROEM)
---------------------------------
  C     -0.334681    0.866363    0.002289
  C     -1.600840    0.303404    0.001171
  C     -1.756252   -1.114455    0.000765
  C     -0.637149   -1.928807    0.003605
  C      0.625060   -1.375134    0.005208
  C      0.792736    0.052526    0.003256
  C      2.084095    0.652447    0.002899
  C      3.268648   -0.019128   -0.002503
  C      4.578979    0.639954   -0.002667
  H      5.154699    0.314281   -0.874591
  H      5.159528    0.303377    0.861861
  H      4.506552    1.724143    0.004155
  H      3.277597   -1.101988   -0.007980
  H      2.109837    1.736211    0.005486
  H      1.487913   -2.021836    0.008746
  H     -0.758935   -3.001528    0.004607
  H     -2.741723   -1.553021   -0.002782
  O     -2.627400    1.137315    0.000589
  C     -3.967423    0.618699   -0.002892
  H     -4.609104    1.491911   -0.000977
  H     -4.146206    0.023975    0.890367
  H     -4.143038    0.030142   -0.900783
  H     -0.235729    1.942483    0.001407

 Multiplicity           Mult            ....    2
 Number of Electrons    NEL             ....   79
 Basis Dimension        Dim             ....  782

ORBITAL ENERGIES
----------------
                 SPIN UP ORBITALS
  NO   OCC          E(Eh)            E(eV)
   0   1.0000     -19.194286      -522.3031
   1   1.0000     -10.268506      -279.4203
   2   1.0000     -10.221274      -278.1350
   3   1.0000     -10.214137      -277.9408
   4   1.0000     -10.213911      -277.9347
   5   1.0000     -10.211939      -277.8810
   6   1.0000     -10.211796      -277.8771
   7   1.0000     -10.196261      -277.4544
   8   1.0000     -10.189907      -277.2815
   9   1.0000     -10.182132      -277.0699
  10   1.0000     -10.160514      -276.4816
  11   1.0000      -1.118712       -30.4417
  12   1.0000      -0.905677       -24.6447
  13   1.0000      -0.845195       -22.9989
  14   1.0000      -0.796331       -21.6693
  15   1.0000      -0.789699       -21.4888
  16   1.0000      -0.726670       -19.7737
  17   1.0000      -0.709896       -19.3173
  18   1.0000      -0.637540       -17.3483
  19   1.0000      -0.631138       -17.1741
  20   1.0000      -0.575660       -15.6645
  21   1.0000      -0.550697       -14.9852
  22   1.0000      -0.516635       -14.0584
  23   1.0000      -0.507888       -13.8203
  24   1.0000      -0.489434       -13.3182
  25   1.0000      -0.487244       -13.2586
  26   1.0000      -0.454964       -12.3802
  27   1.0000      -0.439998       -11.9730
  28   1.0000      -0.429032       -11.6745
  29   1.0000      -0.417351       -11.3567
  30   1.0000      -0.413077       -11.2404
  31   1.0000      -0.405277       -11.0282
  32   1.0000      -0.391171       -10.6443
  33   1.0000      -0.376265       -10.2387
  34   1.0000      -0.364662        -9.9230
  35   1.0000      -0.362698        -9.8695
  36   1.0000      -0.343791        -9.3550
  37   1.0000      -0.328719        -8.9449
  38   1.0000      -0.263883        -7.1806
  39   1.0000      -0.261576        -7.1178
  40   0.0000      -0.098705        -2.6859
  41   0.0000      -0.047623        -1.2959
  42   0.0000       0.003059         0.0832
  43   0.0000       0.007647         0.2081
  44   0.0000       0.018579         0.5055

                 SPIN DOWN ORBITALS
  NO   OCC          E(Eh)            E(eV)
   0   1.0000     -19.191906      -522.2383
   1   1.0000     -10.268174      -279.4112
   2   1.0000     -10.220188      -278.1054
   3   1.0000     -10.212032      -277.8835
   4   1.0000     -10.209097      -277.8036
   5   1.0000     -10.207627      -277.7637
   6   1.0000     -10.205055      -277.6937
   7   1.0000     -10.195655      -277.4379
   8   1.0000     -10.192867      -277.3620
   9   1.0000     -10.182808      -277.0883
  10   1.0000     -10.160627      -276.4847
  11   1.0000      -1.115078       -30.3428
  12   1.0000      -0.898249       -24.4426
  13   1.0000      -0.836365       -22.7586
  14   1.0000      -0.794671       -21.6241
  15   1.0000      -0.779155       -21.2019
  16   1.0000      -0.718668       -19.5559
  17   1.0000      -0.706850       -19.2344
  18   1.0000      -0.634980       -17.2787
  19   1.0000      -0.625707       -17.0264
  20   1.0000      -0.571938       -15.5632
  21   1.0000      -0.548618       -14.9287
  22   1.0000      -0.514635       -14.0039
  23   1.0000      -0.504616       -13.7313
  24   1.0000      -0.484464       -13.1829
  25   1.0000      -0.482225       -13.1220
  26   1.0000      -0.454170       -12.3586
  27   1.0000      -0.439389       -11.9564
  28   1.0000      -0.416996       -11.3470
  29   1.0000      -0.415934       -11.3181
  30   1.0000      -0.403271       -10.9736
  31   1.0000      -0.400955       -10.9105
  32   1.0000      -0.389986       -10.6121
  33   1.0000      -0.375104       -10.2071
  34   1.0000      -0.361023        -9.8239
  35   1.0000      -0.351652        -9.5689
  36   1.0000      -0.341881        -9.3030
  37   1.0000      -0.312625        -8.5070
  38   1.0000      -0.250965        -6.8291
  39   0.0000      -0.196950        -5.3593
  40   0.0000      -0.067706        -1.8424
  41   0.0000      -0.037925        -1.0320
  42   0.0000       0.008300         0.2258
  43   0.0000       0.019233         0.5234

MULLIKEN ATOMIC CHARGES AND SPIN POPULATIONS
--------------------------------------------
   0 C :   -0.938375   -0.074236
   1 C :    0.872542    0.020117
   2 C :    0.020308    0.384501
   3 C :   -0.942226   -0.235051
   4 C :   -0.436972    0.381552
   5 C :    2.023044    0.088737
   6 C :   -0.166344    0.019626
   7 C :   -0.199820    0.238474
   8 C :   -0.774258   -0.030514
   9 H :    0.201273    0.027050
  10 H :    0.202863    0.026849
  11 H :    0.259817   -0.005231
  12 H :    0.137869    0.016360
  13 H :   -0.029692    0.008265
  14 H :    0.294389    0.036342
  15 H :    0.486058   -0.008485
  16 H :    0.306849    0.044977
  17 O :   -0.600863    0.068499
  18 C :   -0.660045   -0.005990
  19 H :    0.243120   -0.000444
  20 H :    0.284569    0.001529
  21 H :    0.284089    0.001564
  22 H :    0.131806   -0.004494
Sum of atomic charges         :    1.0000000

LOEWDIN ATOMIC CHARGES AND SPIN POPULATIONS
-------------------------------------------
   0 C :    0.256306   -0.003821
   1 C :   -0.345075    0.068993
   2 C :    0.293710    0.179279
   3 C :    0.271977    0.031060
   4 C :    0.292360    0.184241
   5 C :   -0.094103    0.084955
   6 C :    0.281581    0.075421
   7 C :    0.291539    0.146861
   8 C :    0.620502    0.048840
   9 H :   -0.148162    0.011049
  10 H :   -0.148307    0.011014
  11 H :   -0.163583    0.000998
  12 H :   -0.165640    0.024870
  13 H :   -0.160113    0.006365
  14 H :   -0.170424    0.039630
  15 H :   -0.154845   -0.014344
  16 H :   -0.168999    0.040992
  17 O :    0.637007    0.058546
  18 C :    0.421829    0.005712
  19 H :   -0.169038   -0.000363
  20 H :   -0.161074    0.001631
  21 H :   -0.160906    0.001625
  22 H :   -0.156543   -0.003557

  Mayer bond orders larger than 0.100000
B(  0-C ,  1-C ) :   0.5762 B(  0-C ,  2-C ) :  -0.1127 B(  0-C ,  4-C ) :  -0.3110
B(  0-C ,  6-C ) :  -0.3222 B(  0-C ,  7-C ) :   0.2000 B(  0-C , 17-O ) :   0.3290
B(  0-C , 22-H ) :   1.2230 B(  1-C ,  2-C ) :   0.9767 B(  1-C ,  4-C ) :  -0.2870
B(  1-C ,  6-C ) :   0.1462 B(  1-C ,  7-C ) :   0.1227 B(  1-C , 17-O ) :   0.2149
B(  1-C , 18-C ) :   0.1337 B(  1-C , 22-H ) :  -0.1087 B(  2-C ,  3-C ) :   0.9553
B(  2-C ,  5-C ) :  -0.1642 B(  2-C ,  6-C ) :   0.1011 B(  2-C , 16-H ) :   0.9560
B(  2-C , 17-O ) :  -0.2380 B(  2-C , 18-C ) :  -0.1849 B(  3-C ,  4-C ) :   0.9623
B(  3-C ,  5-C ) :  -0.1833 B(  3-C ,  7-C ) :  -0.1120 B(  3-C , 14-H ) :  -0.1465
B(  3-C , 15-H ) :   0.4465 B(  4-C ,  5-C ) :   0.3002 B(  4-C , 14-H ) :   0.9453
B(  5-C ,  7-C ) :  -0.1335 B(  5-C ,  8-C ) :   0.1263 B(  5-C , 12-H ) :  -0.2667
B(  5-C , 13-H ) :  -0.1112 B(  5-C , 17-O ) :   0.1761 B(  5-C , 22-H ) :  -0.1135
B(  6-C ,  7-C ) :   0.6783 B(  6-C , 12-H ) :   0.1102 B(  6-C , 13-H ) :   1.3729
B(  6-C , 22-H ) :  -0.1052 B(  7-C ,  8-C ) :   0.5588 B(  7-C , 12-H ) :   1.4447
B(  7-C , 13-H ) :  -0.1669 B(  8-C ,  9-H ) :   1.0257 B(  8-C , 10-H ) :   1.0239
B(  8-C , 11-H ) :   0.9542 B(  8-C , 12-H ) :  -0.1443 B( 16-H , 18-C ) :  -0.1566
B( 17-O , 18-C ) :   0.9548 B( 18-C , 19-H ) :   0.9779 B( 18-C , 20-H ) :   0.9132
B( 18-C , 21-H ) :   0.9137

Dispersion correction           -0.007311513
FINAL SINGLE POINT ENERGY      -463.178491899308

DIPOLE MOMENT
-------------

Method             : SCF
Type of density    : Electron Density
Multiplicity       :   2
Irrep              :   0
Energy             :  -463.1711803863933028 Eh
Relativity type    :
Basis              : AO
                                X                 Y                 Z
Electronic contribution:     -4.306330409      -0.642285936       0.015588603
Nuclear contribution   :      4.729566618      -0.272129815      -0.019909387
                        -----------------------------------------
Total Dipole Moment    :      0.423236209      -0.914415751      -0.004320784
                        -----------------------------------------
Magnitude (a.u.)       :      1.007622808
Magnitude (Debye)      :      2.561173638

Rotational constants in cm-1:             0.105341             0.017252             0.014906
Rotational constants in MHz :          3158.055107           517.194832           446.879319

                             ****ORCA TERMINATED NORMALLY****
TOTAL RUN TIME: 0 days 0 hours 52 minutes 6 seconds 591 msec
