                         Program Version 6.0.0  -   RELEASE  -
|  1> !PBE0 aug-cc-pVTZ d3 TightSCF SlowConv RIJCOSX defgrid2
|  2>
|  3> %pal
|  4> nprocs 4
|  5> end
|  6>
|  7> %scf
|  8> MaxIter 1500
|  9> end
| 10>
| 11> %maxcore 3000
| 12>
| 13> !CPCM
| 14> %cpcm smd true
| 15> SMDsolvent "MeCN"
| 16> surfacetype gepol_ses
| 17> rsolv 2.19
| 18> end
| 19>
| 20> * xyz 0 1
| 21> C          -0.04647165541644      1.20175007347372     -0.00553050489943
| 22> C          -1.43870555706960      1.21239589451355     -0.01141185238374
| 23> C          -2.17026954226625      0.01947100552438     -0.01038224809804
| 24> C          -1.46074461278387     -1.19072092102756     -0.00906771027749
| 25> C          -0.07326224349215     -1.20622095149758     -0.00304890212203
| 26> C           0.65481182780619     -0.00920634999724     -0.00042230964481
| 27> C           2.14757419996696     -0.09199024361869      0.00402287730635
| 28> O           2.70671249810890     -1.16711072436472      0.00700907779024
| 29> C           2.93897617802630      1.19587993441016      0.00548036505340
| 30> H           4.01096899238357      0.95048347070739      0.01057835934714
| 31> H           2.69949954286715      1.80719828499160      0.89313893013017
| 32> H           2.70739245523851      1.80422714815017     -0.88630361962564
| 33> H           0.48538632677828     -2.14590904376286     -0.00336087408771
| 34> H          -2.01268479893227     -2.13645944857989     -0.01530874702934
| 35> C          -3.67109078228289      0.02991456776547      0.01617054647882
| 36> H          -4.04511368194266     -0.09506499069857      1.04953886808692
| 37> H          -4.07732921380228      0.97936405308667     -0.36930347193269
| 38> H          -4.09069162992769     -0.79514284196197     -0.58364116879760
| 39> H          -1.97059871816062      2.16919815395977     -0.01931477093783
| 40> H           0.49134391490087      2.15362812892619     -0.00824554435670
| 41> *
| 42>
| 43>                          ****END OF INPUT****

CARTESIAN COORDINATES (ANGSTROEM)
---------------------------------
  C     -0.046472    1.201750   -0.005531
  C     -1.438706    1.212396   -0.011412
  C     -2.170270    0.019471   -0.010382
  C     -1.460745   -1.190721   -0.009068
  C     -0.073262   -1.206221   -0.003049
  C      0.654812   -0.009206   -0.000422
  C      2.147574   -0.091990    0.004023
  O      2.706712   -1.167111    0.007009
  C      2.938976    1.195880    0.005480
  H      4.010969    0.950483    0.010578
  H      2.699500    1.807198    0.893139
  H      2.707392    1.804227   -0.886304
  H      0.485386   -2.145909   -0.003361
  H     -2.012685   -2.136459   -0.015309
  C     -3.671091    0.029915    0.016171
  H     -4.045114   -0.095065    1.049539
  H     -4.077329    0.979364   -0.369303
  H     -4.090692   -0.795143   -0.583641
  H     -1.970599    2.169198   -0.019315
  H      0.491344    2.153628   -0.008246

 Total Charge           Charge          ....    0
 Multiplicity           Mult            ....    1
 Number of Electrons    NEL             ....   72
 Basis Dimension        Dim             ....  690

ORBITAL ENERGIES
----------------

  NO   OCC          E(Eh)            E(eV)
   0   2.0000     -19.197234      -522.3833
   1   2.0000     -10.315703      -280.7046
   2   2.0000     -10.249571      -278.9050
   3   2.0000     -10.239708      -278.6366
   4   2.0000     -10.238447      -278.6023
   5   2.0000     -10.235585      -278.5244
   6   2.0000     -10.231630      -278.4168
   7   2.0000     -10.231389      -278.4102
   8   2.0000     -10.218429      -278.0576
   9   2.0000     -10.218366      -278.0559
  10   2.0000      -1.075953       -29.2782
  11   2.0000      -0.892524       -24.2868
  12   2.0000      -0.811278       -22.0760
  13   2.0000      -0.775343       -21.0981
  14   2.0000      -0.756346       -20.5812
  15   2.0000      -0.709672       -19.3112
  16   2.0000      -0.629156       -17.1202
  17   2.0000      -0.621910       -16.9230
  18   2.0000      -0.567121       -15.4321
  19   2.0000      -0.512702       -13.9513
  20   2.0000      -0.489403       -13.3173
  21   2.0000      -0.465228       -12.6595
  22   2.0000      -0.454843       -12.3769
  23   2.0000      -0.450083       -12.2474
  24   2.0000      -0.439166       -11.9503
  25   2.0000      -0.432526       -11.7696
  26   2.0000      -0.430391       -11.7115
  27   2.0000      -0.394701       -10.7404
  28   2.0000      -0.387910       -10.5556
  29   2.0000      -0.384407       -10.4602
  30   2.0000      -0.365459        -9.9447
  31   2.0000      -0.363897        -9.9021
  32   2.0000      -0.348056        -9.4711
  33   2.0000      -0.273842        -7.4516
  34   2.0000      -0.269230        -7.3261
  35   2.0000      -0.263510        -7.1705
  36   0.0000      -0.056266        -1.5311
  37   0.0000      -0.014943        -0.4066
  38   0.0000       0.001199         0.0326
  39   0.0000       0.011554         0.3144
  40   0.0000       0.018255         0.4967

MULLIKEN ATOMIC CHARGES
-----------------------
   0 C :   -0.617656
   1 C :   -1.083828
   2 C :    1.104091
   3 C :   -1.001240
   4 C :   -1.234455
   5 C :    1.300749
   6 C :    0.797151
   7 O :   -0.919946
   8 C :   -0.636992
   9 H :    0.190382
  10 H :    0.296874
  11 H :    0.297860
  12 H :    0.254178
  13 H :    0.441106
  14 C :   -0.713980
  15 H :    0.273212
  16 H :    0.257560
  17 H :    0.269416
  18 H :    0.385534
  19 H :    0.339986
Sum of atomic charges:    0.0000000

LOEWDIN ATOMIC CHARGES
----------------------
   0 C :    0.204456
   1 C :    0.223621
   2 C :   -0.135540
   3 C :    0.219286
   4 C :    0.190401
   5 C :   -0.141201
   6 C :   -0.558665
   7 O :    0.484931
   8 C :    0.563446
   9 H :   -0.175837
  10 H :   -0.156020
  11 H :   -0.155961
  12 H :   -0.183552
  13 H :   -0.157708
  14 C :    0.575669
  15 H :   -0.146268
  16 H :   -0.162474
  17 H :   -0.158383
  18 H :   -0.158808
  19 H :   -0.171392

  Mayer bond orders larger than 0.100000
B(  0-C ,  1-C ) :   1.3330 B(  0-C ,  4-C ) :  -0.3687 B(  0-C ,  5-C ) :   0.5486
B(  0-C , 19-H ) :   0.8640 B(  1-C ,  2-C ) :   0.7728 B(  1-C ,  4-C ) :   0.1266
B(  1-C , 18-H ) :   0.7479 B(  2-C ,  3-C ) :   0.9030 B(  2-C , 14-C ) :   0.5653
B(  3-C ,  4-C ) :   1.5917 B(  3-C ,  5-C ) :  -0.1383 B(  3-C , 13-H ) :   0.6360
B(  3-C , 14-C ) :   0.1082 B(  4-C ,  5-C ) :   0.3592 B(  4-C ,  6-C ) :   0.1610
B(  4-C , 12-H ) :   0.9060 B(  5-C ,  6-C ) :   0.5294 B(  5-C ,  7-O ) :   0.2374
B(  6-C ,  7-O ) :   0.7830 B(  6-C ,  8-C ) :   0.9629 B(  7-O , 12-H ) :   0.1804
B(  8-C ,  9-H ) :   0.9475 B(  8-C , 10-H ) :   0.9048 B(  8-C , 11-H ) :   0.9048
B( 14-C , 15-H ) :   0.9357 B( 14-C , 16-H ) :   0.9324 B( 14-C , 17-H ) :   0.9190

Dispersion correction           -0.017980131
FINAL SINGLE POINT ENERGY      -423.889269501221

DIPOLE MOMENT
-------------

Method             : SCF
Type of density    : Electron Density
Multiplicity       :   1
Irrep              :   0
Energy             :  -423.8712893702130486 Eh
Relativity type    :
Basis              : AO
                                X                 Y                 Z
Electronic contribution:      4.047534553      -3.047546239      -0.039375967
Nuclear contribution   :     -5.402543283       4.383900218       0.062989255
                        -----------------------------------------
Total Dipole Moment    :     -1.355008730       1.336353980       0.023613288
                        -----------------------------------------
Magnitude (a.u.)       :      1.903273024
Magnitude (Debye)      :      4.837735566

Rotational constants in cm-1:             0.120803             0.026206             0.021712
Rotational constants in MHz :          3621.570490           785.633269           650.900953

                             ****ORCA TERMINATED NORMALLY****
TOTAL RUN TIME: 0 days 0 hours 6 minutes 36 seconds 136 msec
