                         Program Version 6.0.0  -   RELEASE  -
|  1> !PBE0 aug-cc-pVTZ d3 TightSCF SlowConv RIJCOSX defgrid2
|  2>
|  3> %pal
|  4> nprocs 4
|  5> end
|  6>
|  7> %scf
|  8> MaxIter 1500
|  9> end
| 10>
| 11> %maxcore 3000
| 12>
| 13> !CPCM
| 14> %cpcm smd true
| 15> SMDsolvent "MeCN"
| 16> surfacetype gepol_ses
| 17> rsolv 2.19
| 18> end
| 19>
| 20> * xyz 1 2
| 21> N          -0.13330630053238      0.06463805569502     -0.18304866803580
| 22> C          -1.32995968454461     -0.05705711923400      0.61490351827717
| 23> C          -2.57421309286138      0.33481234464037     -0.19256986810199
| 24> H          -3.45480969375926      0.22323852439894      0.46049095721574
| 25> H          -2.70531629638278     -0.32397925846158     -1.06629352870040
| 26> H          -2.52831512549297      1.38214059969960     -0.53226116106563
| 27> H          -1.40987553635449     -1.09741088656851      0.96495289752573
| 28> H          -1.21877257502732      0.60521085770950      1.49113445986830
| 29> C           0.43429422987933     -1.10866495137441     -0.80815428990417
| 30> C           1.14824192611518     -2.02637648462657      0.18904742798723
| 31> H           0.46485226728110     -2.40600168320464      0.96542777225008
| 32> H           1.54101253446494     -2.89222669399406     -0.36800716513612
| 33> H           1.99361403139429     -1.51333347667236      0.67360854639463
| 34> H          -0.40183357197737     -1.65464503658306     -1.28440413538018
| 35> H           1.12467869031116     -0.77476724100708     -1.59754076820295
| 36> C           0.46556546208798      1.36302303485303     -0.38848915911148
| 37> C           1.83969934059673      1.47885748883746      0.27662539319278
| 38> H           2.56824381802577      0.77442980736822     -0.15544421644798
| 39> H           1.77196599043451      1.31206045111972      1.36382157767815
| 40> H           2.21499768699688      2.50090234957054      0.10662332519206
| 41> H           0.56270404138467      1.51155401080161     -1.48061267604024
| 42> H          -0.22507674203997      2.12332900703226      0.00577186054505
| 43> *
| 44>
| 45>                          ****END OF INPUT****

CARTESIAN COORDINATES (ANGSTROEM)
---------------------------------
  N     -0.133306    0.064638   -0.183049
  C     -1.329960   -0.057057    0.614904
  C     -2.574213    0.334812   -0.192570
  H     -3.454810    0.223239    0.460491
  H     -2.705316   -0.323979   -1.066294
  H     -2.528315    1.382141   -0.532261
  H     -1.409876   -1.097411    0.964953
  H     -1.218773    0.605211    1.491134
  C      0.434294   -1.108665   -0.808154
  C      1.148242   -2.026376    0.189047
  H      0.464852   -2.406002    0.965428
  H      1.541013   -2.892227   -0.368007
  H      1.993614   -1.513333    0.673609
  H     -0.401834   -1.654645   -1.284404
  H      1.124679   -0.774767   -1.597541
  C      0.465565    1.363023   -0.388489
  C      1.839699    1.478857    0.276625
  H      2.568244    0.774430   -0.155444
  H      1.771966    1.312060    1.363822
  H      2.214998    2.500902    0.106623
  H      0.562704    1.511554   -1.480613
  H     -0.225077    2.123329    0.005772

 Total Charge           Charge          ....    1
 Multiplicity           Mult            ....    2
 Number of Electrons    NEL             ....   57
 Basis Dimension        Dim             ....  667

ORBITAL ENERGIES
----------------
                 SPIN UP ORBITALS
  NO   OCC          E(Eh)            E(eV)
   0   1.0000     -14.525592      -395.2614
   1   1.0000     -10.289348      -279.9874
   2   1.0000     -10.288865      -279.9742
   3   1.0000     -10.288795      -279.9724
   4   1.0000     -10.237636      -278.5802
   5   1.0000     -10.236947      -278.5615
   6   1.0000     -10.236670      -278.5539
   7   1.0000      -1.054346       -28.6902
   8   1.0000      -0.827852       -22.5270
   9   1.0000      -0.826120       -22.4799
  10   1.0000      -0.758364       -20.6361
  11   1.0000      -0.692529       -18.8447
  12   1.0000      -0.684491       -18.6259
  13   1.0000      -0.604834       -16.4584
  14   1.0000      -0.560441       -15.2504
  15   1.0000      -0.541937       -14.7469
  16   1.0000      -0.518423       -14.1070
  17   1.0000      -0.473627       -12.8881
  18   1.0000      -0.463822       -12.6213
  19   1.0000      -0.455097       -12.3838
  20   1.0000      -0.425975       -11.5914
  21   1.0000      -0.420339       -11.4380
  22   1.0000      -0.413093       -11.2408
  23   1.0000      -0.403436       -10.9781
  24   1.0000      -0.396656       -10.7936
  25   1.0000      -0.380274       -10.3478
  26   1.0000      -0.376557       -10.2466
  27   1.0000      -0.371894       -10.1198
  28   1.0000      -0.313316        -8.5258
  29   0.0000      -0.001827        -0.0497
  30   0.0000       0.010116         0.2753
  31   0.0000       0.013259         0.3608
  32   0.0000       0.015545         0.4230
  33   0.0000       0.032763         0.8915

                 SPIN DOWN ORBITALS
  NO   OCC          E(Eh)            E(eV)
   0   1.0000     -14.506150      -394.7324
   1   1.0000     -10.289919      -280.0029
   2   1.0000     -10.289432      -279.9897
   3   1.0000     -10.289344      -279.9873
   4   1.0000     -10.236073      -278.5377
   5   1.0000     -10.235569      -278.5240
   6   1.0000     -10.235315      -278.5171
   7   1.0000      -1.018851       -27.7243
   8   1.0000      -0.823181       -22.3999
   9   1.0000      -0.821723       -22.3602
  10   1.0000      -0.748418       -20.3655
  11   1.0000      -0.686422       -18.6785
  12   1.0000      -0.680261       -18.5108
  13   1.0000      -0.594943       -16.1892
  14   1.0000      -0.545460       -14.8427
  15   1.0000      -0.536496       -14.5988
  16   1.0000      -0.490862       -13.3570
  17   1.0000      -0.469889       -12.7863
  18   1.0000      -0.458676       -12.4812
  19   1.0000      -0.444861       -12.1053
  20   1.0000      -0.420296       -11.4368
  21   1.0000      -0.412719       -11.2306
  22   1.0000      -0.406618       -11.0646
  23   1.0000      -0.400453       -10.8969
  24   1.0000      -0.393686       -10.7127
  25   1.0000      -0.378103       -10.2887
  26   1.0000      -0.374147       -10.1811
  27   1.0000      -0.369538       -10.0557
  28   0.0000      -0.153994        -4.1904
  29   0.0000      -0.000943        -0.0257
  30   0.0000       0.011025         0.3000
  31   0.0000       0.013906         0.3784
  32   0.0000       0.016598         0.4517

MULLIKEN ATOMIC CHARGES AND SPIN POPULATIONS
--------------------------------------------
   0 N :    0.402904    0.865367
   1 C :   -0.322978   -0.074067
   2 C :   -0.710479    0.082708
   3 H :    0.231454    0.012584
   4 H :    0.241843    0.002191
   5 H :    0.258378    0.000539
   6 H :    0.264947    0.004415
   7 H :    0.215113    0.023634
   8 C :   -0.256019   -0.078959
   9 C :   -0.702200    0.067782
  10 H :    0.250031   -0.000894
  11 H :    0.210229    0.009992
  12 H :    0.264564    0.004145
  13 H :    0.229921    0.038696
  14 H :    0.228010   -0.002860
  15 C :   -0.354706   -0.077674
  16 C :   -0.697603    0.068414
  17 H :    0.317453    0.000326
  18 H :    0.262339    0.002156
  19 H :    0.158376    0.010160
  20 H :    0.232571    0.042251
  21 H :    0.275854   -0.000906
Sum of atomic charges         :    1.0000000

LOEWDIN ATOMIC CHARGES AND SPIN POPULATIONS
-------------------------------------------
   0 N :    0.370324    0.525961
   1 C :    0.235307    0.087617
   2 C :    0.627296    0.038501
   3 H :   -0.140961    0.008579
   4 H :   -0.143914    0.003633
   5 H :   -0.147528    0.003181
   6 H :   -0.121184    0.004767
   7 H :   -0.097700    0.013683
   8 C :    0.237079    0.086627
   9 C :    0.623055    0.033152
  10 H :   -0.150938    0.002634
  11 H :   -0.139343    0.007020
  12 H :   -0.153269    0.003867
  13 H :   -0.096726    0.018970
  14 H :   -0.112658    0.002596
  15 C :    0.236096    0.089092
  16 C :    0.621277    0.033525
  17 H :   -0.153766    0.002936
  18 H :   -0.139644    0.003664
  19 H :   -0.139983    0.007336
  20 H :   -0.093677    0.020759
  21 H :   -0.119143    0.001900

  Mayer bond orders larger than 0.100000
B(  0-N ,  1-C ) :   0.9277 B(  0-N ,  8-C ) :   0.8880 B(  0-N , 15-C ) :   0.9152
B(  1-C ,  2-C ) :   0.8805 B(  1-C ,  6-H ) :   0.8836 B(  1-C ,  7-H ) :   0.9118
B(  2-C ,  3-H ) :   0.9673 B(  2-C ,  4-H ) :   0.9411 B(  2-C ,  5-H ) :   0.9267
B(  8-C ,  9-C ) :   0.8529 B(  8-C , 13-H ) :   0.8683 B(  8-C , 14-H ) :   0.9713
B(  9-C , 10-H ) :   0.9382 B(  9-C , 11-H ) :   0.9820 B(  9-C , 12-H ) :   0.9215
B( 15-C , 16-C ) :   0.8912 B( 15-C , 20-H ) :   0.8973 B( 15-C , 21-H ) :   0.9122
B( 16-C , 17-H ) :   0.8591 B( 16-C , 18-H ) :   0.9167 B( 16-C , 19-H ) :   1.0448

Dispersion correction           -0.016029617
FINAL SINGLE POINT ENERGY      -291.993501688675

DIPOLE MOMENT
-------------

Method             : SCF
Type of density    : Electron Density
Multiplicity       :   2
Irrep              :   0
Energy             :  -291.9774720716974343 Eh
Relativity type    :
Basis              : AO
                                X                 Y                 Z
Electronic contribution:     -0.705334712       0.366766248      -0.688308825
Nuclear contribution   :      0.524236393      -0.282986655       0.510171142
                        -----------------------------------------
Total Dipole Moment    :     -0.181098319       0.083779593      -0.178137683
                        -----------------------------------------
Magnitude (a.u.)       :      0.267485804
Magnitude (Debye)      :      0.679894883

Rotational constants in cm-1:             0.091790             0.068571             0.045776
Rotational constants in MHz :          2751.807698          2055.699126          1372.315040

                             ****ORCA TERMINATED NORMALLY****
TOTAL RUN TIME: 0 days 0 hours 6 minutes 3 seconds 127 msec
