                         Program Version 6.0.0  -   RELEASE  -
|  1> !B3LYP freq aug-cc-pVTZ d3 TightSCF SlowConv RIJCOSX defgrid2
|  2>
|  3> %pal
|  4> nprocs 12
|  5>
|  6> end
|  7>
|  8> %scf
|  9> MaxIter 1500
| 10> end
| 11>
| 12> %maxcore 5000
| 13>
| 14> !CPCM
| 15> %cpcm smd true
| 16> SMDsolvent "MeCN"
| 17> surfacetype gepol_ses
| 18> rsolv 2.19
| 19> end
| 20>
| 21> * xyz -1 2
| 22> C          -1.21424438201129     -0.03943277040014      0.00003623186531
| 23> C          -1.21706213052004      1.41227221746768     -0.00008354270752
| 24> C           0.00004376955452      2.07841501630212     -0.00000354271182
| 25> C           1.21711873034168      1.41222357816820      0.00008099742083
| 26> C           1.21424701896933     -0.03948211317295     -0.00002421370499
| 27> C          -0.00001273339345     -0.72572926899831      0.00000385278468
| 28> H          -0.00003342830009     -1.80735636075253      0.00000030038901
| 29> C           2.41661679545122     -0.76303157516490     -0.00009761760456
| 30> N           3.42654062907829     -1.34268878403592     -0.00016516426411
| 31> H           2.15289169312632      1.95043325045097      0.00065539089320
| 32> H           0.00006771990665      3.16205970310083     -0.00000275072425
| 33> H          -2.15281415086442      1.95052321609756     -0.00067311596939
| 34> C          -2.41665469923463     -0.76291493742502      0.00012470477081
| 35> N          -3.42661393210410     -1.34251147163760      0.00019936956283
| 36> *
| 37>
| 38>                          ****END OF INPUT****

CARTESIAN COORDINATES (ANGSTROEM)
---------------------------------
  C     -1.214244   -0.039433    0.000036
  C     -1.217062    1.412272   -0.000084
  C      0.000044    2.078415   -0.000004
  C      1.217119    1.412224    0.000081
  C      1.214247   -0.039482   -0.000024
  C     -0.000013   -0.725729    0.000004
  H     -0.000033   -1.807356    0.000000
  C      2.416617   -0.763032   -0.000098
  N      3.426541   -1.342689   -0.000165
  H      2.152892    1.950433    0.000655
  H      0.000068    3.162060   -0.000003
  H     -2.152814    1.950523   -0.000673
  C     -2.416655   -0.762915    0.000125
  N     -3.426614   -1.342511    0.000199

 Total Charge           Charge          ....   -1
 Multiplicity           Mult            ....    2
 Number of Electrons    NEL             ....   67
 Basis Dimension        Dim             ....  552

ORBITAL ENERGIES
----------------
                 SPIN UP ORBITALS
  NO   OCC          E(Eh)            E(eV)
   0   1.0000     -14.296746      -389.0342
   1   1.0000     -14.296744      -389.0342
   2   1.0000     -10.199935      -277.5543
   3   1.0000     -10.199927      -277.5541
   4   1.0000     -10.186069      -277.1770
   5   1.0000     -10.183799      -277.1153
   6   1.0000     -10.183731      -277.1134
   7   1.0000     -10.162938      -276.5476
   8   1.0000     -10.155519      -276.3457
   9   1.0000     -10.155497      -276.3451
  10   1.0000      -0.897444       -24.4207
  11   1.0000      -0.894431       -24.3387
  12   1.0000      -0.847246       -23.0547
  13   1.0000      -0.761831       -20.7305
  14   1.0000      -0.751890       -20.4600
  15   1.0000      -0.637132       -17.3372
  16   1.0000      -0.624317       -16.9885
  17   1.0000      -0.558215       -15.1898
  18   1.0000      -0.480533       -13.0760
  19   1.0000      -0.469803       -12.7840
  20   1.0000      -0.447386       -12.1740
  21   1.0000      -0.421110       -11.4590
  22   1.0000      -0.397781       -10.8242
  23   1.0000      -0.371861       -10.1188
  24   1.0000      -0.369899       -10.0655
  25   1.0000      -0.365912        -9.9570
  26   1.0000      -0.355074        -9.6620
  27   1.0000      -0.353363        -9.6155
  28   1.0000      -0.326158        -8.8752
  29   1.0000      -0.321779        -8.7560
  30   1.0000      -0.317818        -8.6483
  31   1.0000      -0.259623        -7.0647
  32   1.0000      -0.249909        -6.8004
  33   1.0000      -0.102781        -2.7968
  34   0.0000      -0.031121        -0.8468
  35   0.0000      -0.001854        -0.0504
  36   0.0000       0.014681         0.3995
  37   0.0000       0.015681         0.4267
  38   0.0000       0.029255         0.7961

                 SPIN DOWN ORBITALS
  NO   OCC          E(Eh)            E(eV)
   0   1.0000     -14.294834      -388.9822
   1   1.0000     -14.294831      -388.9821
   2   1.0000     -10.199860      -277.5523
   3   1.0000     -10.199852      -277.5521
   4   1.0000     -10.186768      -277.1960
   5   1.0000     -10.182131      -277.0699
   6   1.0000     -10.182106      -277.0692
   7   1.0000     -10.164693      -276.5954
   8   1.0000     -10.150095      -276.1981
   9   1.0000     -10.150093      -276.1981
  10   1.0000      -0.894339       -24.3362
  11   1.0000      -0.891491       -24.2587
  12   1.0000      -0.842565       -22.9274
  13   1.0000      -0.754173       -20.5221
  14   1.0000      -0.747486       -20.3401
  15   1.0000      -0.624967       -17.0062
  16   1.0000      -0.622192       -16.9307
  17   1.0000      -0.557052       -15.1582
  18   1.0000      -0.475715       -12.9449
  19   1.0000      -0.467665       -12.7258
  20   1.0000      -0.444272       -12.0893
  21   1.0000      -0.420663       -11.4468
  22   1.0000      -0.386430       -10.5153
  23   1.0000      -0.368540       -10.0285
  24   1.0000      -0.366865        -9.9829
  25   1.0000      -0.355659        -9.6780
  26   1.0000      -0.352196        -9.5837
  27   1.0000      -0.351715        -9.5707
  28   1.0000      -0.320425        -8.7192
  29   1.0000      -0.316392        -8.6095
  30   1.0000      -0.313769        -8.5381
  31   1.0000      -0.249364        -6.7855
  32   1.0000      -0.223798        -6.0899
  33   0.0000      -0.033613        -0.9147
  34   0.0000      -0.026503        -0.7212
  35   0.0000      -0.001791        -0.0487
  36   0.0000       0.014642         0.3984
  37   0.0000       0.015417         0.4195

MULLIKEN ATOMIC CHARGES AND SPIN POPULATIONS
--------------------------------------------
   0 C :    1.388533    0.109887
   1 C :   -0.894140    0.420927
   2 C :   -0.508915   -0.119208
   3 C :   -0.894276    0.420927
   4 C :    1.385732    0.109863
   5 C :   -1.139388   -0.048827
   6 H :   -0.135494    0.009592
   7 C :    0.422868   -0.011450
   8 N :   -0.881679    0.096363
   9 H :    0.078624   -0.033408
  10 H :    0.559481   -0.006175
  11 H :    0.078152   -0.033400
  12 C :    0.421329   -0.011457
  13 N :   -0.880828    0.096367
Sum of atomic charges         :   -1.0000000

LOEWDIN ATOMIC CHARGES AND SPIN POPULATIONS
-------------------------------------------
   0 C :   -0.256509    0.102385
   1 C :    0.158990    0.195061
   2 C :    0.129617    0.061743
   3 C :    0.158989    0.195057
   4 C :   -0.256510    0.102385
   5 C :    0.147091    0.015569
   6 H :   -0.170635   -0.000937
   7 C :   -0.327486    0.046276
   8 N :    0.173886    0.074862
   9 H :   -0.207430    0.045899
  10 H :   -0.188979   -0.005335
  11 H :   -0.207427    0.045900
  12 C :   -0.327485    0.046275
  13 N :    0.173888    0.074859

  Mayer bond orders larger than 0.100000
B(  0-C ,  2-C ) :   0.1704 B(  0-C ,  4-C ) :   0.3601 B(  0-C ,  5-C ) :   0.3948
B(  0-C ,  6-H ) :  -0.2348 B(  0-C , 11-H ) :  -0.2447 B(  0-C , 12-C ) :   0.7162
B(  0-C , 13-N ) :   0.1679 B(  1-C ,  2-C ) :   1.1894 B(  1-C ,  3-C ) :  -0.1136
B(  1-C ,  5-C ) :  -0.2176 B(  1-C , 11-H ) :   1.3432 B(  1-C , 12-C ) :   0.3782
B(  2-C ,  3-C ) :   1.1899 B(  2-C ,  4-C ) :   0.1702 B(  2-C ,  9-H ) :  -0.1425
B(  2-C , 10-H ) :   0.5638 B(  2-C , 11-H ) :  -0.1420 B(  3-C ,  5-C ) :  -0.2180
B(  3-C ,  7-C ) :   0.3767 B(  3-C ,  9-H ) :   1.3431 B(  4-C ,  5-C ) :   0.3942
B(  4-C ,  6-H ) :  -0.2344 B(  4-C ,  7-C ) :   0.7182 B(  4-C ,  8-N ) :   0.1703
B(  4-C ,  9-H ) :  -0.2448 B(  5-C ,  6-H ) :   1.6197 B(  5-C ,  7-C ) :   0.1638
B(  5-C ,  9-H ) :   0.1163 B(  5-C , 11-H ) :   0.1162 B(  5-C , 12-C ) :   0.1632
B(  7-C ,  8-N ) :   1.5674 B(  7-C , 12-C ) :   0.2306 B( 12-C , 13-N ) :   1.5702

Dispersion correction           -0.028029733
FINAL SINGLE POINT ENERGY      -416.770664530446

DIPOLE MOMENT
-------------

Method             : SCF
Type of density    : Electron Density
Multiplicity       :   2
Irrep              :   0
Energy             :  -416.7426347978052945 Eh
Relativity type    :
Basis              : AO
                                X                 Y                 Z
Electronic contribution:     -0.000093302      -3.166202836       0.000016482
Nuclear contribution   :      0.000112888       4.957593843      -0.000045223
                        -----------------------------------------
Total Dipole Moment    :      0.000019586       1.791391007      -0.000028742
                        -----------------------------------------
Magnitude (a.u.)       :      1.791391008
Magnitude (Debye)      :      4.553354080

VIBRATIONAL FREQUENCIES
-----------------------

Scaling factor for frequencies =  1.000000000  (already applied!)

     0:       0.00 cm**-1
     1:       0.00 cm**-1
     2:       0.00 cm**-1
     3:       0.00 cm**-1
     4:       0.00 cm**-1
     5:       0.00 cm**-1
     6:     118.32 cm**-1
     7:     118.62 cm**-1
     8:     133.49 cm**-1
     9:     196.28 cm**-1
    10:     327.34 cm**-1
    11:     403.87 cm**-1
    12:     428.31 cm**-1
    13:     468.68 cm**-1
    14:     499.34 cm**-1
    15:     564.07 cm**-1
    16:     575.31 cm**-1
    17:     614.70 cm**-1
    18:     625.82 cm**-1
    19:     669.32 cm**-1
    20:     672.69 cm**-1
    21:     694.16 cm**-1
    22:     877.84 cm**-1
    23:     923.72 cm**-1
    24:     960.21 cm**-1
    25:     985.23 cm**-1
    26:    1011.63 cm**-1
    27:    1093.96 cm**-1
    28:    1139.88 cm**-1
    29:    1271.92 cm**-1
    30:    1284.70 cm**-1
    31:    1344.90 cm**-1
    32:    1390.52 cm**-1
    33:    1408.13 cm**-1
    34:    1470.38 cm**-1
    35:    1522.53 cm**-1
    36:    2132.32 cm**-1
    37:    2237.25 cm**-1
    38:    3151.45 cm**-1
    39:    3178.69 cm**-1
    40:    3193.52 cm**-1
    41:    3200.29 cm**-1

IR SPECTRUM
-----------

 Mode   freq       eps      Int      T**2         TX        TY        TZ
       cm**-1   L/(mol*cm) km/mol    a.u.
----------------------------------------------------------------------------
  6:    118.32   0.001696    8.57  0.004472  (-0.000039 -0.000304 -0.066873)
  7:    118.62   0.003627   18.33  0.009543  ( 0.000007 -0.097689  0.000207)
  8:    133.49   0.000000    0.00  0.000000  (-0.000000 -0.000190  0.000024)
  9:    196.28   0.000728    3.68  0.001157  (-0.034011  0.000003 -0.000185)
 10:    327.34   0.000000    0.00  0.000000  ( 0.000010 -0.000036 -0.000001)
 11:    403.87   0.005092   25.73  0.003934  ( 0.000434 -0.000002 -0.062723)
 12:    428.31   0.018751   94.76  0.013662  (-0.116885  0.000006 -0.000020)
 13:    468.68   0.000091    0.46  0.000061  ( 0.000009  0.007792 -0.000001)
 14:    499.34   0.010517   53.15  0.006572  ( 0.000249 -0.000000  0.081070)
 15:    564.07   0.000295    1.49  0.000163  ( 0.000004  0.012781  0.000002)
 16:    575.31   0.000000    0.00  0.000000  (-0.000012 -0.000036 -0.000010)
 17:    614.70   0.000308    1.56  0.000156  ( 0.012217  0.000000  0.002647)
 18:    625.82   0.029896  151.08  0.014908  (-0.000608  0.000005  0.122096)
 19:    669.32   0.001615    8.16  0.000753  ( 0.000016 -0.000005  0.027440)
 20:    672.69   0.000000    0.00  0.000000  ( 0.000014 -0.000175 -0.000057)
 21:    694.16   0.000003    0.01  0.000001  ( 0.000018 -0.001088  0.000001)
 22:    877.84   0.059589  301.14  0.021183  ( 0.145545 -0.000002 -0.000104)
 23:    923.72   0.003344   16.90  0.001130  ( 0.000886 -0.000003 -0.033601)
 24:    960.21   0.000149    0.75  0.000048  (-0.001379 -0.000000 -0.006816)
 25:    985.23   0.000000    0.00  0.000000  ( 0.000045 -0.000015  0.000002)
 26:   1011.63   0.508656  2570.54  0.156908  ( 0.396116 -0.000014  0.000090)
 27:   1093.96   0.001759    8.89  0.000502  (-0.000036 -0.022399  0.000000)
 28:   1139.88   0.025087  126.78  0.006868  ( 0.082873 -0.000005  0.000089)
 29:   1271.92   0.000012    0.06  0.000003  (-0.000062  0.001718  0.000000)
 30:   1284.70   0.087089  440.11  0.021154  ( 0.145446 -0.000006 -0.000144)
 31:   1344.90   0.000149    0.75  0.000035  (-0.005876 -0.000002 -0.000068)
 32:   1390.52   0.252657  1276.82  0.056702  (-0.238121  0.000005  0.000072)
 33:   1408.13   0.000587    2.97  0.000130  ( 0.000009  0.011407  0.000002)
 34:   1470.38   0.177868  898.87  0.037749  ( 0.194292 -0.000002  0.000003)
 35:   1522.53   0.000218    1.10  0.000045  ( 0.000001  0.006679  0.000001)
 36:   2132.32   0.982518  4965.24  0.143791  ( 0.379198 -0.000011 -0.000057)
 37:   2237.25   0.074627  377.13  0.010409  (-0.000003 -0.102026  0.000001)
 38:   3151.45   0.004328   21.87  0.000429  ( 0.000003 -0.020702  0.000001)
 39:   3178.69   0.001028    5.19  0.000101  ( 0.000003 -0.010046  0.000000)
 40:   3193.52   0.006434   32.52  0.000629  (-0.025074  0.000053  0.000062)
 41:   3200.29   0.004170   21.07  0.000407  (-0.000068 -0.020164  0.000000)

--------------------------
THERMOCHEMISTRY AT 298.15K
--------------------------

Temperature         ...   298.15 K
Pressure            ...     1.00 atm
Total Mass          ...   128.13 AMU
Quasi RRHO          ...     True
Cut-Off Frequency   ...     1.00 cm^-1

Throughout the following assumptions are being made:
  (1) The electronic state is orbitally nondegenerate
      but the spin degeneracy is treated
  (2) There are no thermally accessible electronically excited states
  (3) Hindered rotations indicated by low frequency modes are not
      treated as such but are treated as vibrations and this may
      cause some error
  (4) All equations used are the standard statistical mechanics
      equations for an ideal gas
  (5) All vibrations are strictly harmonic

freq.     118.32  E(vib)   ...       0.44
freq.     118.62  E(vib)   ...       0.44
freq.     133.49  E(vib)   ...       0.42
freq.     196.28  E(vib)   ...       0.36
freq.     327.34  E(vib)   ...       0.24
freq.     403.87  E(vib)   ...       0.19
freq.     428.31  E(vib)   ...       0.18
freq.     468.68  E(vib)   ...       0.16
freq.     499.34  E(vib)   ...       0.14
freq.     564.07  E(vib)   ...       0.11
freq.     575.31  E(vib)   ...       0.11
freq.     614.70  E(vib)   ...       0.10
freq.     625.82  E(vib)   ...       0.09
freq.     669.32  E(vib)   ...       0.08
freq.     672.69  E(vib)   ...       0.08
freq.     694.16  E(vib)   ...       0.07
freq.     877.84  E(vib)   ...       0.04
freq.     923.72  E(vib)   ...       0.03
freq.     960.21  E(vib)   ...       0.03
freq.     985.23  E(vib)   ...       0.02
freq.    1011.63  E(vib)   ...       0.02
freq.    1093.96  E(vib)   ...       0.02
freq.    1139.88  E(vib)   ...       0.01
freq.    1271.92  E(vib)   ...       0.01
freq.    1284.70  E(vib)   ...       0.01
freq.    1344.90  E(vib)   ...       0.01
freq.    1390.52  E(vib)   ...       0.00
freq.    1408.13  E(vib)   ...       0.00
freq.    1470.38  E(vib)   ...       0.00
freq.    1522.53  E(vib)   ...       0.00
freq.    2132.32  E(vib)   ...       0.00
freq.    2237.25  E(vib)   ...       0.00
freq.    3151.45  E(vib)   ...       0.00
freq.    3178.69  E(vib)   ...       0.00
freq.    3193.52  E(vib)   ...       0.00
freq.    3200.29  E(vib)   ...       0.00

------------
INNER ENERGY
------------

The inner energy is: U= E(el) + E(ZPE) + E(vib) + E(rot) + E(trans)
    E(el)   - is the total energy from the electronic structure calculation
              = E(kin-el) + E(nuc-el) + E(el-el) + E(nuc-nuc)
    E(ZPE)  - the the zero temperature vibrational energy from the frequency calculation
    E(vib)  - the the finite temperature correction to E(ZPE) due to population
              of excited vibrational states
    E(rot)  - is the rotational thermal energy
    E(trans)- is the translational thermal energy

Summary of contributions to the inner energy U:
Electronic energy                ...   -416.77066453 Eh
Zero point energy                ...      0.09315290 Eh      58.45 kcal/mol
Thermal vibrational correction   ...      0.00543690 Eh       3.41 kcal/mol
Thermal rotational correction    ...      0.00141627 Eh       0.89 kcal/mol
Thermal translational correction ...      0.00141627 Eh       0.89 kcal/mol
-----------------------------------------------------------------------
Total thermal energy                   -416.66924218 Eh

Summary of corrections to the electronic energy:
(perhaps to be used in another calculation)
Total thermal correction                  0.00826945 Eh       5.19 kcal/mol
Non-thermal (ZPE) correction              0.09315290 Eh      58.45 kcal/mol
-----------------------------------------------------------------------
Total correction                          0.10142235 Eh      63.64 kcal/mol

--------
ENTHALPY
--------

The enthalpy is H = U + kB*T
                kB is Boltzmann's constant
Total thermal energy              ...   -416.66924218 Eh
Thermal Enthalpy correction       ...      0.00094421 Eh       0.59 kcal/mol
-----------------------------------------------------------------------
Total Enthalpy                    ...   -416.66829797 Eh

Note: Rotational entropy computed according to Herzberg
Infrared and Raman Spectra, Chapter V,1, Van Nostrand Reinhold, 1945
Point Group:  C2, Symmetry Number:   2
Rotational constants in cm-1:     0.087953     0.030675     0.022743

Vibrational entropy computed according to the QRRHO of S. Grimme
Chem.Eur.J. 2012 18 9955 using a reference frequency of 100.0 cm-1

-------
ENTROPY
-------

The entropy contributions are T*S = T*(S(el)+S(vib)+S(rot)+S(trans))
     S(el)   - electronic entropy
     S(vib)  - vibrational entropy
     S(rot)  - rotational entropy
     S(trans)- translational entropy
The entropies will be listed as multiplied by the temperature to get
units of energy

Electronic entropy                ...      0.00065446 Eh      0.41 kcal/mol
Vibrational entropy               ...      0.00908412 Eh      5.70 kcal/mol
Rotational entropy                ...      0.01343505 Eh      8.43 kcal/mol
Translational entropy             ...      0.01922234 Eh     12.06 kcal/mol
-----------------------------------------------------------------------
Final entropy term                ...      0.04239597 Eh     26.60 kcal/mol

In case the symmetry of your molecule has not been determined correctly
or in case you have a reason to use a different symmetry number we print
out the resulting rotational entropy values for sn=1,12:

 non-linear molecules -----------------------------------
|  sn= 1 | S(rot)=       0.01408951 Eh      8.84 kcal/mol|
|  sn= 2 | S(rot)=       0.01343505 Eh      8.43 kcal/mol|
|  sn= 3 | S(rot)=       0.01305222 Eh      8.19 kcal/mol|
|  sn= 4 | S(rot)=       0.01278059 Eh      8.02 kcal/mol|
|  sn= 5 | S(rot)=       0.01256991 Eh      7.89 kcal/mol|
|  sn= 6 | S(rot)=       0.01239776 Eh      7.78 kcal/mol|
|  sn= 7 | S(rot)=       0.01225221 Eh      7.69 kcal/mol|
|  sn= 8 | S(rot)=       0.01212614 Eh      7.61 kcal/mol|
|  sn= 9 | S(rot)=       0.01201493 Eh      7.54 kcal/mol|
|  sn=10 | S(rot)=       0.01191545 Eh      7.48 kcal/mol|
|  sn=11 | S(rot)=       0.01182546 Eh      7.42 kcal/mol|
|  sn=12 | S(rot)=       0.01174330 Eh      7.37 kcal/mol|
 linear molecules ---------------------------------------
|  Dinfh | S(rot)=       0.00889812 Eh      5.58 kcal/mol|
|  Cinfv | S(rot)=       0.00955257 Eh      5.99 kcal/mol|
 --------------------------------------------------------

-------------------
GIBBS FREE ENERGY
-------------------

The Gibbs free energy is G = H - T*S

Total enthalpy                    ...   -416.66829797 Eh
Total entropy correction          ...     -0.04239597 Eh    -26.60 kcal/mol
-----------------------------------------------------------------------
Final Gibbs free energy         ...   -416.71069394 Eh

                             ****ORCA TERMINATED NORMALLY****
TOTAL RUN TIME: 0 days 0 hours 29 minutes 18 seconds 102 msec
