                         Program Version 6.0.0  -   RELEASE  -
|  1> !PBE0 opt def2-SV(p) d3 TightSCF SlowConv RIJCOSX defgrid2
|  2>
|  3> %pal
|  4> nprocs 8
|  5> end
|  6>
|  7> %scf
|  8> MaxIter 1500
|  9> end
| 10>
| 11> %maxcore 3500
| 12>
| 13> !CPCM
| 14> %cpcm smd true
| 15> SMDsolvent "MeCN"
| 16> surfacetype gepol_ses
| 17> rsolv 2.19
| 18> end
| 19>
| 20> * xyz 0 1
| 21> C          -0.72498712360752     -1.03199143591489     -0.00035587408950
| 22> C          -1.31725281953672      0.23700082940336     -0.00009216740947
| 23> C          -0.49927603036286      1.37741269983118     -0.00017815340748
| 24> C           0.87877130461947      1.25225114649976     -0.00046421372633
| 25> C           1.48912617012247     -0.01748708715836     -0.00062594889474
| 26> C           0.66252427774642     -1.14934366375667     -0.00064528665934
| 27> H           1.11889620163877     -2.14249327366435     -0.00083021648088
| 28> C           2.91104462440564     -0.14733894022628     -0.00063151415770
| 29> C           4.11990582812650     -0.25742637188868      0.00161358861277
| 30> H           5.19058139416864     -0.35415649223885      0.00097524906911
| 31> H           1.50779855780145      2.14601626186340     -0.00050473395896
| 32> H          -0.98017045333696      2.35860761783862      0.00000793066196
| 33> O          -2.64430351331883      0.45808400164866      0.00024605971359
| 34> C          -3.51534558275692     -0.63765175952228      0.00045178300619
| 35> H          -4.53490407246321     -0.22445155867607      0.00076695107216
| 36> H          -3.38161982455796     -1.26589006640153     -0.90098962915142
| 37> H          -3.38109122143507     -1.26596319208985      0.90176498266982
| 38> H          -1.33393961725331     -1.93771991554716     -0.00032660686979
| 39> *
| 40>
| 41>                          ****END OF INPUT****
 Total Charge           Charge          ....    0
 Multiplicity           Mult            ....    1
 Number of Electrons    NEL             ....   70
Dispersion correction           -0.015950126
FINAL SINGLE POINT ENERGY      -422.123463960444
Dispersion correction             ... done (  0.1 sec)
Dispersion correction           -0.015944203
FINAL SINGLE POINT ENERGY      -422.123560163523
Dispersion correction             ... done (  0.1 sec)
Dispersion correction           -0.015941601
FINAL SINGLE POINT ENERGY      -422.123576690536
Dispersion correction             ... done (  0.1 sec)
Dispersion correction           -0.015941145
FINAL SINGLE POINT ENERGY      -422.123579438791
Dispersion correction             ... done (  0.1 sec)
                    ***********************HURRAY********************

CARTESIAN COORDINATES (ANGSTROEM)
---------------------------------
  C     -0.726453   -1.031464    0.000855
  C     -1.318492    0.239943    0.000769
  C     -0.497750    1.380959    0.000302
  C      0.880896    1.255558   -0.000069
  C      1.488209   -0.016775    0.000040
  C      0.660398   -1.150355    0.000537
  H      1.110143   -2.146893    0.000204
  C      2.911070   -0.147971   -0.000862
  C      4.121733   -0.258139    0.000296
  H      5.195794   -0.355023   -0.001111
  H      1.506178    2.152331   -0.000688
  H     -0.971280    2.366285    0.000386
  O     -2.640603    0.458221    0.001065
  C     -3.516654   -0.644587   -0.000426
  H     -4.535539   -0.229779   -0.001137
  H     -3.381799   -1.268481   -0.902916
  H     -3.383788   -1.269746    0.901511
  H     -1.336303   -1.936624    0.001424

 Multiplicity           Mult            ....    1
 Number of Electrons    NEL             ....   70
 Basis Dimension        Dim             ....  156

ORBITAL ENERGIES
----------------

  NO   OCC          E(Eh)            E(eV)
   0   2.0000     -19.249348      -523.8014
   1   2.0000     -10.306620      -280.4574
   2   2.0000     -10.272220      -279.5213
   3   2.0000     -10.262445      -279.2553
   4   2.0000     -10.248854      -278.8855
   5   2.0000     -10.248086      -278.8646
   6   2.0000     -10.247707      -278.8543
   7   2.0000     -10.239219      -278.6233
   8   2.0000     -10.237697      -278.5819
   9   2.0000     -10.235009      -278.5087
  10   2.0000      -1.099993       -29.9323
  11   2.0000      -0.887746       -24.1568
  12   2.0000      -0.806161       -21.9368
  13   2.0000      -0.775159       -21.0932
  14   2.0000      -0.754593       -20.5335
  15   2.0000      -0.712997       -19.4016
  16   2.0000      -0.637740       -17.3538
  17   2.0000      -0.621692       -16.9171
  18   2.0000      -0.567347       -15.4383
  19   2.0000      -0.546696       -14.8764
  20   2.0000      -0.512949       -13.9581
  21   2.0000      -0.510194       -13.8831
  22   2.0000      -0.487913       -13.2768
  23   2.0000      -0.461479       -12.5575
  24   2.0000      -0.443236       -12.0611
  25   2.0000      -0.432501       -11.7689
  26   2.0000      -0.408850       -11.1254
  27   2.0000      -0.408346       -11.1117
  28   2.0000      -0.379412       -10.3243
  29   2.0000      -0.362361        -9.8604
  30   2.0000      -0.342137        -9.3100
  31   2.0000      -0.307121        -8.3572
  32   2.0000      -0.298510        -8.1229
  33   2.0000      -0.279110        -7.5950
  34   2.0000      -0.232065        -6.3148
  35   0.0000      -0.027162        -0.7391
  36   0.0000      -0.011828        -0.3219
  37   0.0000       0.046889         1.2759
  38   0.0000       0.084337         2.2949
  39   0.0000       0.091452         2.4885

MULLIKEN ATOMIC CHARGES
-----------------------
   0 C :   -0.247833
   1 C :    0.281687
   2 C :   -0.177074
   3 C :   -0.111086
   4 C :   -0.033593
   5 C :   -0.108872
   6 H :    0.124105
   7 C :    0.349291
   8 C :   -0.583350
   9 H :    0.168630
  10 H :    0.124885
  11 H :    0.119135
  12 O :   -0.329037
  13 C :   -0.182421
  14 H :    0.165149
  15 H :    0.153493
  16 H :    0.153539
  17 H :    0.133354
Sum of atomic charges:   -0.0000000

LOEWDIN ATOMIC CHARGES
----------------------
   0 C :   -0.183550
   1 C :    0.041755
   2 C :   -0.158253
   3 C :   -0.100282
   4 C :   -0.100176
   5 C :   -0.096238
   6 H :    0.149701
   7 C :   -0.039444
   8 C :   -0.215654
   9 H :    0.180384
  10 H :    0.149859
  11 H :    0.149028
  12 O :   -0.107992
  13 C :   -0.204623
  14 H :    0.133908
  15 H :    0.124110
  16 H :    0.124137
  17 H :    0.153331

  Mayer bond orders larger than 0.100000
B(  0-C ,  1-C ) :   1.2876 B(  0-C ,  5-C ) :   1.3761 B(  0-C , 17-H ) :   0.9591
B(  1-C ,  2-C ) :   1.3194 B(  1-C , 12-O ) :   1.1401 B(  2-C ,  3-C ) :   1.4157
B(  2-C , 11-H ) :   0.9644 B(  3-C ,  4-C ) :   1.3126 B(  3-C , 10-H ) :   0.9661
B(  4-C ,  5-C ) :   1.3512 B(  4-C ,  7-C ) :   0.9991 B(  5-C ,  6-H ) :   0.9641
B(  7-C ,  8-C ) :   2.3746 B(  8-C ,  9-H ) :   1.0304 B( 12-O , 13-C ) :   0.9315
B( 13-C , 14-H ) :   0.9525 B( 13-C , 15-H ) :   0.9401 B( 13-C , 16-H ) :   0.9401

Dispersion correction           -0.015941202
FINAL SINGLE POINT ENERGY      -422.123580420767

DIPOLE MOMENT
-------------

Method             : SCF
Type of density    : Electron Density
Multiplicity       :   1
Irrep              :   0
Energy             :  -422.1076392190000774 Eh
Relativity type    :
Basis              : AO
                                X                 Y                 Z
Electronic contribution:      4.467973278       1.929947822       0.002800155
Nuclear contribution   :     -5.476686099      -2.523144308      -0.003990045
                        -----------------------------------------
Total Dipole Moment    :     -1.008712821      -0.593196486      -0.001189890
                        -----------------------------------------
Magnitude (a.u.)       :      1.170207264
Magnitude (Debye)      :      2.974430484

Rotational constants in cm-1:             0.161426             0.023537             0.020624
Rotational constants in MHz :          4839.436942           705.615003           618.297378

                             ****ORCA TERMINATED NORMALLY****
TOTAL RUN TIME: 0 days 0 hours 4 minutes 32 seconds 33 msec
