                         Program Version 6.0.0  -   RELEASE  -
|  1> !r2SCAN freq aug-cc-pVTZ d3 TightSCF SlowConv RIJCOSX defgrid2
|  2>
|  3> %pal
|  4> nprocs 12
|  5> end
|  6>
|  7> %scf
|  8> MaxIter 1500
|  9> end
| 10>
| 11> %maxcore 5000
| 12>
| 13> !CPCM
| 14> %cpcm smd true
| 15> SMDsolvent "MeCN"
| 16> surfacetype gepol_ses
| 17> rsolv 2.19
| 18> end
| 19>
| 20> * xyz 0 1
| 21> C          -1.19920925444595     -0.02136070494928      0.00012407568039
| 22> C          -1.20333609566344      1.37936564808304      0.00039275627644
| 23> C           0.00003219276628      2.06813152737867      0.00002016578267
| 24> C           1.20337605799319      1.37932359322003     -0.00045767806270
| 25> C           1.19921106865996     -0.02140243334505     -0.00034507982526
| 26> C          -0.00001176859922     -0.73342599377694     -0.00018967377748
| 27> H          -0.00003190425948     -1.81447636978920     -0.00028702435158
| 28> C           2.43195251670775     -0.73110372302224     -0.00018694678211
| 29> N           3.43618565279514     -1.30441149870546      0.00127286979905
| 30> H           2.14400437514730      1.91370736142990     -0.00053441548435
| 31> H           0.00005384253407      3.14994804667424      0.00009921383748
| 32> H          -2.14394725740164      1.91377883775968      0.00054494581100
| 33> C          -2.43197794324479     -0.73101566411097      0.00000651527417
| 34> N          -3.43623728298916     -1.30427912684643     -0.00039962417771
| 35> *
| 36>
| 37>                          ****END OF INPUT****

CARTESIAN COORDINATES (ANGSTROEM)
---------------------------------
  C     -1.199209   -0.021361    0.000124
  C     -1.203336    1.379366    0.000393
  C      0.000032    2.068132    0.000020
  C      1.203376    1.379324   -0.000458
  C      1.199211   -0.021402   -0.000345
  C     -0.000012   -0.733426   -0.000190
  H     -0.000032   -1.814476   -0.000287
  C      2.431953   -0.731104   -0.000187
  N      3.436186   -1.304411    0.001273
  H      2.144004    1.913707   -0.000534
  H      0.000054    3.149948    0.000099
  H     -2.143947    1.913779    0.000545
  C     -2.431978   -0.731016    0.000007
  N     -3.436237   -1.304279   -0.000400

 Total Charge           Charge          ....    0
 Multiplicity           Mult            ....    1
 Number of Electrons    NEL             ....   66
 Basis Dimension        Dim             ....  552

ORBITAL ENERGIES
----------------

  NO   OCC          E(Eh)            E(eV)
   0   2.0000     -14.176421      -385.7600
   1   2.0000     -14.176420      -385.7600
   2   2.0000     -10.101667      -274.8803
   3   2.0000     -10.101655      -274.8800
   4   2.0000     -10.094371      -274.6818
   5   2.0000     -10.094364      -274.6816
   6   2.0000     -10.084135      -274.4033
   7   2.0000     -10.076119      -274.1851
   8   2.0000     -10.076100      -274.1846
   9   2.0000     -10.064727      -273.8751
  10   2.0000      -0.897415       -24.4199
  11   2.0000      -0.891868       -24.2690
  12   2.0000      -0.861333       -23.4381
  13   2.0000      -0.776847       -21.1391
  14   2.0000      -0.758557       -20.6414
  15   2.0000      -0.640678       -17.4337
  16   2.0000      -0.636193       -17.3117
  17   2.0000      -0.567832       -15.4515
  18   2.0000      -0.483226       -13.1493
  19   2.0000      -0.477810       -13.0019
  20   2.0000      -0.466146       -12.6845
  21   2.0000      -0.423463       -11.5230
  22   2.0000      -0.404811       -11.0155
  23   2.0000      -0.370184       -10.0732
  24   2.0000      -0.366036        -9.9603
  25   2.0000      -0.365769        -9.9531
  26   2.0000      -0.354077        -9.6349
  27   2.0000      -0.348585        -9.4855
  28   2.0000      -0.330125        -8.9832
  29   2.0000      -0.326371        -8.8810
  30   2.0000      -0.326362        -8.8808
  31   2.0000      -0.267847        -7.2885
  32   2.0000      -0.263191        -7.1618
  33   0.0000      -0.099361        -2.7037
  34   0.0000      -0.084349        -2.2952
  35   0.0000      -0.020306        -0.5525
  36   0.0000      -0.004967        -0.1352
  37   0.0000       0.002244         0.0611

MULLIKEN ATOMIC CHARGES
-----------------------
   0 C :    1.482143
   1 C :   -0.772181
   2 C :   -0.506000
   3 C :   -0.772181
   4 C :    1.482154
   5 C :   -0.936634
   6 H :   -0.049690
   7 C :    0.486215
   8 N :   -0.844357
   9 H :    0.119206
  10 H :    0.550255
  11 H :    0.119194
  12 C :    0.486233
  13 N :   -0.844359
Sum of atomic charges:    0.0000000

LOEWDIN ATOMIC CHARGES
----------------------
   0 C :   -0.183668
   1 C :    0.237919
   2 C :    0.248346
   3 C :    0.237919
   4 C :   -0.183667
   5 C :    0.227086
   6 H :   -0.147902
   7 C :   -0.236393
   8 N :    0.250866
   9 H :   -0.152799
  10 H :   -0.159382
  11 H :   -0.152800
  12 C :   -0.236394
  13 N :    0.250866

  Mayer bond orders larger than 0.100000
B(  0-C ,  1-C ) :   0.1911 B(  0-C ,  2-C ) :   0.1304 B(  0-C ,  4-C ) :   0.3923
B(  0-C ,  5-C ) :   0.3144 B(  0-C ,  6-H ) :  -0.1881 B(  0-C , 11-H ) :  -0.1457
B(  0-C , 12-C ) :   0.6208 B(  1-C ,  2-C ) :   1.1348 B(  1-C ,  3-C ) :  -0.1973
B(  1-C ,  5-C ) :  -0.2035 B(  1-C , 11-H ) :   1.2082 B(  1-C , 12-C ) :   0.3180
B(  1-C , 13-N ) :   0.1299 B(  2-C ,  3-C ) :   1.1348 B(  2-C ,  4-C ) :   0.1304
B(  2-C , 10-H ) :   0.5123 B(  3-C ,  4-C ) :   0.1911 B(  3-C ,  5-C ) :  -0.2035
B(  3-C ,  7-C ) :   0.3180 B(  3-C ,  8-N ) :   0.1299 B(  3-C ,  9-H ) :   1.2082
B(  4-C ,  5-C ) :   0.3144 B(  4-C ,  6-H ) :  -0.1881 B(  4-C ,  7-C ) :   0.6208
B(  4-C ,  9-H ) :  -0.1457 B(  5-C ,  6-H ) :   1.3991 B(  5-C ,  7-C ) :   0.1046
B(  5-C ,  8-N ) :   0.1048 B(  5-C , 12-C ) :   0.1046 B(  5-C , 13-N ) :   0.1048
B(  7-C ,  8-N ) :   1.6994 B(  7-C , 12-C ) :   0.2202 B( 12-C , 13-N ) :   1.6994

Dispersion correction           -0.004822582
FINAL SINGLE POINT ENERGY      -416.662322328123

DIPOLE MOMENT
-------------

Method             : SCF
Type of density    : Electron Density
Multiplicity       :   1
Irrep              :   0
Energy             :  -416.6574997457275913 Eh
Relativity type    :
Basis              : AO
                                X                 Y                 Z
Electronic contribution:     -0.000021237      -2.414533770      -0.000552379
Nuclear contribution   :      0.000079812       4.836598015      -0.000291208
                        -----------------------------------------
Total Dipole Moment    :      0.000058574       2.422064245      -0.000843588
                        -----------------------------------------
Magnitude (a.u.)       :      2.422064393
Magnitude (Debye)      :      6.156398430

VIBRATIONAL FREQUENCIES
-----------------------

Scaling factor for frequencies =  1.000000000  (already applied!)

     0:       0.00 cm**-1
     1:       0.00 cm**-1
     2:       0.00 cm**-1
     3:       0.00 cm**-1
     4:       0.00 cm**-1
     5:       0.00 cm**-1
     6:     112.38 cm**-1
     7:     113.74 cm**-1
     8:     150.84 cm**-1
     9:     190.70 cm**-1
    10:     377.03 cm**-1
    11:     384.57 cm**-1
    12:     462.46 cm**-1
    13:     463.17 cm**-1
    14:     524.52 cm**-1
    15:     544.42 cm**-1
    16:     613.66 cm**-1
    17:     631.33 cm**-1
    18:     683.77 cm**-1
    19:     712.84 cm**-1
    20:     807.37 cm**-1
    21:     905.05 cm**-1
    22:     914.04 cm**-1
    23:     943.56 cm**-1
    24:    1007.08 cm**-1
    25:    1011.95 cm**-1
    26:    1115.33 cm**-1
    27:    1164.05 cm**-1
    28:    1182.30 cm**-1
    29:    1259.60 cm**-1
    30:    1316.83 cm**-1
    31:    1364.40 cm**-1
    32:    1439.56 cm**-1
    33:    1498.69 cm**-1
    34:    1601.21 cm**-1
    35:    1629.12 cm**-1
    36:    2303.38 cm**-1
    37:    2306.19 cm**-1
    38:    3192.79 cm**-1
    39:    3202.09 cm**-1
    40:    3208.62 cm**-1
    41:    3210.80 cm**-1

IR SPECTRUM
-----------

 Mode   freq       eps      Int      T**2         TX        TY        TZ
       cm**-1   L/(mol*cm) km/mol    a.u.
----------------------------------------------------------------------------
  6:    112.38   0.003660   18.50  0.010164  ( 0.000042  0.100803  0.001615)
  7:    113.74   0.002055   10.39  0.005639  (-0.000101 -0.002120  0.075064)
  8:    150.84   0.000000    0.00  0.000000  (-0.000017  0.000203  0.000000)
  9:    190.70   0.000713    3.60  0.001166  ( 0.034153 -0.000064  0.000214)
 10:    377.03   0.000000    0.00  0.000000  ( 0.000050  0.000118 -0.000010)
 11:    384.57   0.000153    0.77  0.000124  ( 0.000078  0.000031  0.011143)
 12:    462.46   0.000033    0.17  0.000022  (-0.004698  0.000012 -0.000215)
 13:    463.17   0.000232    1.17  0.000156  ( 0.000008  0.012494  0.000030)
 14:    524.52   0.006701   33.87  0.003987  (-0.000118  0.000046  0.063143)
 15:    544.42   0.000387    1.96  0.000222  ( 0.000003  0.014901 -0.000070)
 16:    613.66   0.000334    1.69  0.000170  (-0.013033  0.000002  0.000325)
 17:    631.33   0.000000    0.00  0.000000  ( 0.000075 -0.000040  0.000019)
 18:    683.77   0.010692   54.03  0.004880  (-0.000115 -0.000007  0.069855)
 19:    712.84   0.000056    0.28  0.000025  ( 0.000012  0.004967  0.000004)
 20:    807.37   0.009395   47.48  0.003631  (-0.000058 -0.000002  0.060259)
 21:    905.05   0.004327   21.86  0.001492  (-0.000571 -0.000012  0.038620)
 22:    914.04   0.002288   11.56  0.000781  (-0.027940  0.000002 -0.000740)
 23:    943.56   0.000001    0.00  0.000000  ( 0.000015  0.000435  0.000004)
 24:   1007.08   0.000015    0.08  0.000005  ( 0.000088 -0.000004 -0.002146)
 25:   1011.95   0.000312    1.58  0.000096  (-0.000013  0.009805 -0.000010)
 26:   1115.33   0.002716   13.73  0.000760  (-0.000033 -0.027567 -0.000003)
 27:   1164.05   0.002787   14.09  0.000747  ( 0.027335 -0.000035  0.000135)
 28:   1182.30   0.000486    2.45  0.000128  ( 0.011321  0.000002  0.000130)
 29:   1259.60   0.000830    4.20  0.000206  (-0.000024 -0.014341 -0.000007)
 30:   1316.83   0.000016    0.08  0.000004  (-0.001969  0.000005 -0.000061)
 31:   1364.40   0.000847    4.28  0.000194  (-0.013915  0.000003 -0.000017)
 32:   1439.56   0.001939    9.80  0.000420  ( 0.000004 -0.020501  0.000005)
 33:   1498.69   0.002865   14.48  0.000596  ( 0.024423 -0.000005  0.000035)
 34:   1601.21   0.000086    0.43  0.000017  ( 0.000006 -0.004082  0.000002)
 35:   1629.12   0.002537   12.82  0.000486  (-0.022046  0.000001  0.000071)
 36:   2303.38   0.049239  248.83  0.006671  ( 0.081676 -0.000008 -0.000035)
 37:   2306.19   0.012867   65.03  0.001741  (-0.000013 -0.041727 -0.000004)
 38:   3192.79   0.000179    0.90  0.000017  (-0.000000 -0.004183 -0.000001)
 39:   3202.09   0.000083    0.42  0.000008  (-0.002842 -0.000003  0.000067)
 40:   3208.62   0.000064    0.32  0.000006  ( 0.000000  0.002485  0.000000)
 41:   3210.80   0.000591    2.98  0.000057  (-0.000001  0.007576 -0.000001)

--------------------------
THERMOCHEMISTRY AT 298.15K
--------------------------

Temperature         ...   298.15 K
Pressure            ...     1.00 atm
Total Mass          ...   128.13 AMU
Quasi RRHO          ...     True
Cut-Off Frequency   ...     1.00 cm^-1

Throughout the following assumptions are being made:
  (1) The electronic state is orbitally nondegenerate
  (2) There are no thermally accessible electronically excited states
  (3) Hindered rotations indicated by low frequency modes are not
      treated as such but are treated as vibrations and this may
      cause some error
  (4) All equations used are the standard statistical mechanics
      equations for an ideal gas
  (5) All vibrations are strictly harmonic

freq.     112.38  E(vib)   ...       0.45
freq.     113.74  E(vib)   ...       0.44
freq.     150.84  E(vib)   ...       0.40
freq.     190.70  E(vib)   ...       0.36
freq.     377.03  E(vib)   ...       0.21
freq.     384.57  E(vib)   ...       0.20
freq.     462.46  E(vib)   ...       0.16
freq.     463.17  E(vib)   ...       0.16
freq.     524.52  E(vib)   ...       0.13
freq.     544.42  E(vib)   ...       0.12
freq.     613.66  E(vib)   ...       0.10
freq.     631.33  E(vib)   ...       0.09
freq.     683.77  E(vib)   ...       0.07
freq.     712.84  E(vib)   ...       0.07
freq.     807.37  E(vib)   ...       0.05
freq.     905.05  E(vib)   ...       0.03
freq.     914.04  E(vib)   ...       0.03
freq.     943.56  E(vib)   ...       0.03
freq.    1007.08  E(vib)   ...       0.02
freq.    1011.95  E(vib)   ...       0.02
freq.    1115.33  E(vib)   ...       0.01
freq.    1164.05  E(vib)   ...       0.01
freq.    1182.30  E(vib)   ...       0.01
freq.    1259.60  E(vib)   ...       0.01
freq.    1316.83  E(vib)   ...       0.01
freq.    1364.40  E(vib)   ...       0.01
freq.    1439.56  E(vib)   ...       0.00
freq.    1498.69  E(vib)   ...       0.00
freq.    1601.21  E(vib)   ...       0.00
freq.    1629.12  E(vib)   ...       0.00
freq.    2303.38  E(vib)   ...       0.00
freq.    2306.19  E(vib)   ...       0.00
freq.    3192.79  E(vib)   ...       0.00
freq.    3202.09  E(vib)   ...       0.00
freq.    3208.62  E(vib)   ...       0.00
freq.    3210.80  E(vib)   ...       0.00

------------
INNER ENERGY
------------

The inner energy is: U= E(el) + E(ZPE) + E(vib) + E(rot) + E(trans)
    E(el)   - is the total energy from the electronic structure calculation
              = E(kin-el) + E(nuc-el) + E(el-el) + E(nuc-nuc)
    E(ZPE)  - the the zero temperature vibrational energy from the frequency calculation
    E(vib)  - the the finite temperature correction to E(ZPE) due to population
              of excited vibrational states
    E(rot)  - is the rotational thermal energy
    E(trans)- is the translational thermal energy

Summary of contributions to the inner energy U:
Electronic energy                ...   -416.66232233 Eh
Zero point energy                ...      0.09693473 Eh      60.83 kcal/mol
Thermal vibrational correction   ...      0.00513160 Eh       3.22 kcal/mol
Thermal rotational correction    ...      0.00141627 Eh       0.89 kcal/mol
Thermal translational correction ...      0.00141627 Eh       0.89 kcal/mol
-----------------------------------------------------------------------
Total thermal energy                   -416.55742345 Eh

Summary of corrections to the electronic energy:
(perhaps to be used in another calculation)
Total thermal correction                  0.00796414 Eh       5.00 kcal/mol
Non-thermal (ZPE) correction              0.09693473 Eh      60.83 kcal/mol
-----------------------------------------------------------------------
Total correction                          0.10489888 Eh      65.82 kcal/mol

--------
ENTHALPY
--------

The enthalpy is H = U + kB*T
                kB is Boltzmann's constant
Total thermal energy              ...   -416.55742345 Eh
Thermal Enthalpy correction       ...      0.00094421 Eh       0.59 kcal/mol
-----------------------------------------------------------------------
Total Enthalpy                    ...   -416.55647924 Eh

Note: Only C1 symmetry has been detected, increase convergence thresholds
      if your molecule has a higher symmetry. Symmetry factor of 1.0 is
      used for the rotational entropy correction.

Note: Rotational entropy computed according to Herzberg
Infrared and Raman Spectra, Chapter V,1, Van Nostrand Reinhold, 1945
Point Group:  C1, Symmetry Number:   1
Rotational constants in cm-1:     0.091245     0.030570     0.022898

Vibrational entropy computed according to the QRRHO of S. Grimme
Chem.Eur.J. 2012 18 9955 using a reference frequency of 100.0 cm-1

-------
ENTROPY
-------

The entropy contributions are T*S = T*(S(el)+S(vib)+S(rot)+S(trans))
     S(el)   - electronic entropy
     S(vib)  - vibrational entropy
     S(rot)  - rotational entropy
     S(trans)- translational entropy
The entropies will be listed as multiplied by the temperature to get
units of energy

Electronic entropy                ...      0.00000000 Eh      0.00 kcal/mol
Vibrational entropy               ...      0.00862310 Eh      5.41 kcal/mol
Rotational entropy                ...      0.01407057 Eh      8.83 kcal/mol
Translational entropy             ...      0.01922234 Eh     12.06 kcal/mol
-----------------------------------------------------------------------
Final entropy term                ...      0.04191601 Eh     26.30 kcal/mol

In case the symmetry of your molecule has not been determined correctly
or in case you have a reason to use a different symmetry number we print
out the resulting rotational entropy values for sn=1,12:

 non-linear molecules -----------------------------------
|  sn= 1 | S(rot)=       0.01407057 Eh      8.83 kcal/mol|
|  sn= 2 | S(rot)=       0.01341612 Eh      8.42 kcal/mol|
|  sn= 3 | S(rot)=       0.01303328 Eh      8.18 kcal/mol|
|  sn= 4 | S(rot)=       0.01276166 Eh      8.01 kcal/mol|
|  sn= 5 | S(rot)=       0.01255097 Eh      7.88 kcal/mol|
|  sn= 6 | S(rot)=       0.01237883 Eh      7.77 kcal/mol|
|  sn= 7 | S(rot)=       0.01223328 Eh      7.68 kcal/mol|
|  sn= 8 | S(rot)=       0.01210720 Eh      7.60 kcal/mol|
|  sn= 9 | S(rot)=       0.01199599 Eh      7.53 kcal/mol|
|  sn=10 | S(rot)=       0.01189651 Eh      7.47 kcal/mol|
|  sn=11 | S(rot)=       0.01180652 Eh      7.41 kcal/mol|
|  sn=12 | S(rot)=       0.01172437 Eh      7.36 kcal/mol|
 linear molecules ---------------------------------------
|  Dinfh | S(rot)=       0.00889170 Eh      5.58 kcal/mol|
|  Cinfv | S(rot)=       0.00954615 Eh      5.99 kcal/mol|
 --------------------------------------------------------

-------------------
GIBBS FREE ENERGY
-------------------

The Gibbs free energy is G = H - T*S

                             ****ORCA TERMINATED NORMALLY****
TOTAL RUN TIME: 0 days 0 hours 12 minutes 58 seconds 137 msec
