                         Program Version 6.0.0  -   RELEASE  -
|  1> !r2SCAN aug-cc-pVTZ d3 TightSCF SlowConv RIJCOSX defgrid2
|  2>
|  3> %pal
|  4> nprocs 4
|  5> end
|  6>
|  7> %scf
|  8> MaxIter 1500
|  9> end
| 10>
| 11> %maxcore 3000
| 12>
| 13> !CPCM
| 14> %cpcm smd true
| 15> SMDsolvent "MeCN"
| 16> surfacetype gepol_ses
| 17> rsolv 2.19
| 18> end
| 19>
| 20> * xyz 1 2
| 21> C          -0.08274669059718     -1.04399274826201      0.00954198550444
| 22> C          -1.44314186979999     -1.21224349192059      0.01464115375041
| 23> C          -2.32257727617337     -0.09487222329371      0.01274887003500
| 24> C          -1.76475290459407      1.20761482302953      0.00780256836072
| 25> C          -0.40273191503338      1.38761253420536      0.00299374201136
| 26> C           0.48723075022230      0.26923379961588      0.00339892002300
| 27> C           1.88361104255076      0.51997141228763     -0.00136731410568
| 28> C           2.88609272782847     -0.43252038403740     -0.00211440107444
| 29> C           4.32371272330116     -0.12403052833475     -0.00716059814151
| 30> H           4.81199450703941     -0.59263895023193      0.87108589562038
| 31> H           4.80704713115468     -0.59771697456439     -0.88539713829447
| 32> H           4.53724499406217      0.95562079688104     -0.01081444259812
| 33> H           2.61316130337916     -1.49525746809077      0.00127055185440
| 34> H           2.19060539304120      1.57295312497944     -0.00515248687208
| 35> H           0.01742107746022      2.39740330737597      0.00010725500974
| 36> H          -2.43168783850088      2.07400339025986      0.00974847718212
| 37> C          -3.79206162044774     -0.30228879497229     -0.00564898818348
| 38> H          -4.34940861071486      0.62196968873633      0.20771494941170
| 39> H          -4.10189712650768     -0.66414858988669     -1.00697947362935
| 40> H          -4.09284114272650     -1.08666315679518      0.71118909458011
| 41> H          -1.86630567510074     -2.22073732773736      0.02172898720586
| 42> H           0.56388072015687     -1.92419663924397      0.01175289234987
| 43> *
| 44>
| 45>                          ****END OF INPUT****

CARTESIAN COORDINATES (ANGSTROEM)
---------------------------------
  C     -0.082747   -1.043993    0.009542
  C     -1.443142   -1.212243    0.014641
  C     -2.322577   -0.094872    0.012749
  C     -1.764753    1.207615    0.007803
  C     -0.402732    1.387613    0.002994
  C      0.487231    0.269234    0.003399
  C      1.883611    0.519971   -0.001367
  C      2.886093   -0.432520   -0.002114
  C      4.323713   -0.124031   -0.007161
  H      4.811995   -0.592639    0.871086
  H      4.807047   -0.597717   -0.885397
  H      4.537245    0.955621   -0.010814
  H      2.613161   -1.495257    0.001271
  H      2.190605    1.572953   -0.005152
  H      0.017421    2.397403    0.000107
  H     -2.431688    2.074003    0.009748
  C     -3.792062   -0.302289   -0.005649
  H     -4.349409    0.621970    0.207715
  H     -4.101897   -0.664149   -1.006979
  H     -4.092841   -1.086663    0.711189
  H     -1.866306   -2.220737    0.021729
  H      0.563881   -1.924197    0.011753

 Total Charge           Charge          ....    1
 Multiplicity           Mult            ....    2
 Number of Electrons    NEL             ....   71
 Basis Dimension        Dim             ....  736

ORBITAL ENERGIES
----------------
                 SPIN UP ORBITALS
  NO   OCC          E(Eh)            E(eV)
   0   1.0000     -10.107790      -275.0469
   1   1.0000     -10.104388      -274.9544
   2   1.0000     -10.102649      -274.9071
   3   1.0000     -10.090615      -274.5796
   4   1.0000     -10.080510      -274.3046
   5   1.0000     -10.080100      -274.2935
   6   1.0000     -10.069444      -274.0035
   7   1.0000     -10.069246      -273.9981
   8   1.0000     -10.050260      -273.4815
   9   1.0000     -10.045555      -273.3534
  10   1.0000      -0.868339       -23.6287
  11   1.0000      -0.817214       -22.2375
  12   1.0000      -0.770732       -20.9727
  13   1.0000      -0.749300       -20.3895
  14   1.0000      -0.706453       -19.2236
  15   1.0000      -0.652517       -17.7559
  16   1.0000      -0.611123       -16.6295
  17   1.0000      -0.587486       -15.9863
  18   1.0000      -0.550226       -14.9724
  19   1.0000      -0.504220       -13.7205
  20   1.0000      -0.471365       -12.8265
  21   1.0000      -0.452493       -12.3129
  22   1.0000      -0.426779       -11.6132
  23   1.0000      -0.416882       -11.3439
  24   1.0000      -0.415965       -11.3190
  25   1.0000      -0.411189       -11.1890
  26   1.0000      -0.407069       -11.0769
  27   1.0000      -0.375522       -10.2185
  28   1.0000      -0.374524       -10.1913
  29   1.0000      -0.366158        -9.9637
  30   1.0000      -0.351323        -9.5600
  31   1.0000      -0.345508        -9.4018
  32   1.0000      -0.326616        -8.8877
  33   1.0000      -0.307580        -8.3697
  34   1.0000      -0.274492        -7.4693
  35   1.0000      -0.242699        -6.6042
  36   0.0000      -0.115827        -3.1518
  37   0.0000      -0.066243        -1.8026
  38   0.0000      -0.023271        -0.6332
  39   0.0000       0.005576         0.1517
  40   0.0000       0.016579         0.4511

                 SPIN DOWN ORBITALS
  NO   OCC          E(Eh)            E(eV)
   0   1.0000     -10.100756      -274.8556
   1   1.0000     -10.100190      -274.8402
   2   1.0000     -10.099688      -274.8265
   3   1.0000     -10.089848      -274.5587
   4   1.0000     -10.078881      -274.2603
   5   1.0000     -10.078490      -274.2496
   6   1.0000     -10.070146      -274.0226
   7   1.0000     -10.069815      -274.0136
   8   1.0000     -10.050414      -273.4857
   9   1.0000     -10.045612      -273.3550
  10   1.0000      -0.861523       -23.4432
  11   1.0000      -0.806497       -21.9459
  12   1.0000      -0.760103       -20.6835
  13   1.0000      -0.747515       -20.3409
  14   1.0000      -0.705396       -19.1948
  15   1.0000      -0.647054       -17.6072
  16   1.0000      -0.607945       -16.5430
  17   1.0000      -0.581154       -15.8140
  18   1.0000      -0.544767       -14.8239
  19   1.0000      -0.502775       -13.6812
  20   1.0000      -0.469586       -12.7781
  21   1.0000      -0.449703       -12.2370
  22   1.0000      -0.424498       -11.5512
  23   1.0000      -0.415607       -11.3092
  24   1.0000      -0.409566       -11.1449
  25   1.0000      -0.404087       -10.9958
  26   1.0000      -0.394106       -10.7242
  27   1.0000      -0.373330       -10.1588
  28   1.0000      -0.365315        -9.9407
  29   1.0000      -0.363235        -9.8841
  30   1.0000      -0.350296        -9.5320
  31   1.0000      -0.344236        -9.3671
  32   1.0000      -0.324872        -8.8402
  33   1.0000      -0.290567        -7.9067
  34   1.0000      -0.269626        -7.3369
  35   0.0000      -0.204919        -5.5761
  36   0.0000      -0.083499        -2.2721
  37   0.0000      -0.057402        -1.5620
  38   0.0000       0.000153         0.0042
  39   0.0000       0.006459         0.1758

MULLIKEN ATOMIC CHARGES AND SPIN POPULATIONS
--------------------------------------------
   0 C :   -0.626314    0.072642
   1 C :   -1.097150   -0.057857
   2 C :    1.557749    0.319003
   3 C :   -0.834644   -0.057090
   4 C :   -0.888076    0.062566
   5 C :    2.364964    0.179312
   6 C :    0.009234    0.033968
   7 C :   -0.087779    0.348239
   8 C :   -0.769856   -0.040117
   9 H :    0.182806    0.040107
  10 H :    0.181030    0.039960
  11 H :    0.249438   -0.009227
  12 H :    0.256987    0.035114
  13 H :    0.025147    0.010596
  14 H :    0.098161    0.018185
  15 H :    0.194520   -0.003359
  16 C :   -0.639140   -0.044952
  17 H :    0.178864   -0.002546
  18 H :    0.253381    0.032722
  19 H :    0.202675    0.014799
  20 H :    0.251176    0.002094
  21 H :   -0.063176    0.005839
Sum of atomic charges         :    1.0000000

LOEWDIN ATOMIC CHARGES AND SPIN POPULATIONS
-------------------------------------------
   0 C :    0.269417    0.062731
   1 C :    0.271840    0.029581
   2 C :   -0.075965    0.131775
   3 C :    0.274503    0.035908
   4 C :    0.267214    0.065665
   5 C :   -0.082221    0.110453
   6 C :    0.289887    0.111352
   7 C :    0.303823    0.218715
   8 C :    0.616461    0.071327
   9 H :   -0.137880    0.016399
  10 H :   -0.137879    0.016404
  11 H :   -0.154223    0.001389
  12 H :   -0.149731    0.037102
  13 H :   -0.151105    0.007187
  14 H :   -0.143496    0.009373
  15 H :   -0.147432   -0.002228
  16 C :    0.617093    0.047468
  17 H :   -0.153856    0.002023
  18 H :   -0.130135    0.014312
  19 H :   -0.142093    0.008268
  20 H :   -0.142744   -0.003408
  21 H :   -0.161477    0.008203

  Mayer bond orders larger than 0.100000
B(  0-C ,  1-C ) :   1.0861 B(  0-C ,  2-C ) :   0.1576 B(  0-C ,  3-C ) :  -0.1707
B(  0-C ,  4-C ) :  -0.5838 B(  0-C ,  6-C ) :   0.1377 B(  0-C , 21-H ) :   1.5531
B(  1-C ,  2-C ) :   0.4992 B(  1-C ,  4-C ) :  -0.1328 B(  1-C ,  7-C ) :  -0.1170
B(  1-C , 14-H ) :  -0.1050 B(  1-C , 16-C ) :   0.1113 B(  1-C , 20-H ) :   0.9152
B(  1-C , 21-H ) :  -0.1519 B(  2-C ,  3-C ) :   0.4091 B(  2-C ,  6-C ) :   0.1367
B(  2-C , 14-H ) :  -0.1350 B(  2-C , 16-C ) :   0.2698 B(  2-C , 21-H ) :  -0.1331
B(  3-C ,  4-C ) :   1.5168 B(  3-C ,  5-C ) :  -0.1302 B(  3-C , 15-H ) :   1.0239
B(  3-C , 16-C ) :  -0.1560 B(  3-C , 21-H ) :  -0.1168 B(  4-C ,  5-C ) :  -0.4213
B(  4-C ,  7-C ) :   0.1727 B(  4-C , 14-H ) :   1.3766 B(  5-C ,  6-C ) :   0.2824
B(  5-C ,  7-C ) :  -0.1153 B(  5-C , 12-H ) :  -0.1463 B(  5-C , 14-H ) :  -0.1381
B(  5-C , 21-H ) :  -0.2279 B(  6-C ,  7-C ) :   0.6710 B(  6-C , 13-H ) :   1.2198
B(  6-C , 14-H ) :  -0.1006 B(  7-C ,  8-C ) :   0.6344 B(  7-C , 12-H ) :   1.1861
B(  7-C , 13-H ) :  -0.1671 B(  8-C ,  9-H ) :   1.0292 B(  8-C , 10-H ) :   1.0284
B(  8-C , 11-H ) :   0.9407 B(  8-C , 12-H ) :  -0.1933 B( 14-H , 21-H ) :   0.1257
B( 16-C , 17-H ) :   1.0246 B( 16-C , 18-H ) :   0.9486 B( 16-C , 19-H ) :   0.9992

Dispersion correction           -0.006671378
FINAL SINGLE POINT ENERGY      -387.997674777375

DIPOLE MOMENT
-------------

Method             : SCF
Type of density    : Electron Density
Multiplicity       :   2
Irrep              :   0
Energy             :  -387.9910033998714312 Eh
Relativity type    :
Basis              : AO
                                X                 Y                 Z
Electronic contribution:     -1.615026408       0.797885181       0.054659462
Nuclear contribution   :      2.533197376      -0.996205714      -0.098486582
                        -----------------------------------------
Total Dipole Moment    :      0.918170969      -0.198320533      -0.043827120
                        -----------------------------------------
Magnitude (a.u.)       :      0.940366832
Magnitude (Debye)      :      2.390222532

Rotational constants in cm-1:             0.153944             0.020635             0.018320
Rotational constants in MHz :          4615.121792           618.608795           549.210532

                             ****ORCA TERMINATED NORMALLY****
TOTAL RUN TIME: 0 days 0 hours 7 minutes 51 seconds 479 msec
