                         Program Version 6.0.0  -   RELEASE  -
|  1> !PBE0 aug-cc-pVTZ d3 TightSCF SlowConv RIJCOSX defgrid2
|  2>
|  3> %pal
|  4> nprocs 4
|  5> end
|  6>
|  7> %scf
|  8> MaxIter 1500
|  9> end
| 10>
| 11> %maxcore 3000
| 12>
| 13> !CPCM
| 14> %cpcm smd true
| 15> SMDsolvent "MeCN"
| 16> surfacetype gepol_ses
| 17> rsolv 2.19
| 18> end
| 19>
| 20> * xyz 1 2
| 21> C           0.00952428511137      1.14381862948455     -0.00004241850549
| 22> C          -1.34405804782715      1.36835429039483     -0.00004501377751
| 23> C          -2.25803675623572      0.27994374569514     -0.00001444991813
| 24> C          -1.79893876317452     -1.05503699905501      0.00001836451112
| 25> C          -0.44966853213070     -1.30717096682290      0.00001901616088
| 26> C           0.47768132323041     -0.20754569072665     -0.00000570718377
| 27> O           1.72715481916077     -0.54575427099223      0.00000126933750
| 28> C           2.80134500679620      0.40109022692015     -0.00002708967268
| 29> H           2.75083060085294      1.02148240859275     -0.90936313619747
| 30> H           2.75076150937771      1.02163468660922      0.90919997962481
| 31> H           3.71874480964519     -0.20034761824646      0.00005825478275
| 32> H          -0.03837787308311     -2.31994207676691      0.00003911986652
| 33> H          -2.51564718597583     -1.88032469418672      0.00003900521605
| 34> H          -3.33291112256179      0.48384956913135     -0.00002166925602
| 35> H          -1.72762364845365      2.39229306604659     -0.00007349223884
| 36> H           0.71284737526787      1.97878939392230     -0.00006603274972
| 37> *
| 38>
| 39>                          ****END OF INPUT****

CARTESIAN COORDINATES (ANGSTROEM)
---------------------------------
  C      0.009524    1.143819   -0.000042
  C     -1.344058    1.368354   -0.000045
  C     -2.258037    0.279944   -0.000014
  C     -1.798939   -1.055037    0.000018
  C     -0.449669   -1.307171    0.000019
  C      0.477681   -0.207546   -0.000006
  O      1.727155   -0.545754    0.000001
  C      2.801345    0.401090   -0.000027
  H      2.750831    1.021482   -0.909363
  H      2.750762    1.021635    0.909200
  H      3.718745   -0.200348    0.000058
  H     -0.038378   -2.319942    0.000039
  H     -2.515647   -1.880325    0.000039
  H     -3.332911    0.483850   -0.000022
  H     -1.727624    2.392293   -0.000073
  H      0.712847    1.978789   -0.000066

 Total Charge           Charge          ....    1
 Multiplicity           Mult            ....    2
 Number of Electrons    NEL             ....   57
 Basis Dimension        Dim             ....  552

ORBITAL ENERGIES
----------------
                 SPIN UP ORBITALS
  NO   OCC          E(Eh)            E(eV)
   0   1.0000     -19.330894      -526.0204
   1   1.0000     -10.370288      -282.1899
   2   1.0000     -10.297906      -280.2203
   3   1.0000     -10.297527      -280.2100
   4   1.0000     -10.286525      -279.9106
   5   1.0000     -10.282797      -279.8091
   6   1.0000     -10.278575      -279.6942
   7   1.0000     -10.272635      -279.5326
   8   1.0000      -1.190298       -32.3897
   9   1.0000      -0.930149       -25.3106
  10   1.0000      -0.834801       -22.7161
  11   1.0000      -0.821264       -22.3477
  12   1.0000      -0.760812       -20.7027
  13   1.0000      -0.676323       -18.4037
  14   1.0000      -0.649542       -17.6749
  15   1.0000      -0.595492       -16.2041
  16   1.0000      -0.548934       -14.9372
  17   1.0000      -0.548767       -14.9327
  18   1.0000      -0.544370       -14.8131
  19   1.0000      -0.489694       -13.3253
  20   1.0000      -0.478104       -13.0099
  21   1.0000      -0.466212       -12.6863
  22   1.0000      -0.441754       -12.0207
  23   1.0000      -0.417564       -11.3625
  24   1.0000      -0.412296       -11.2191
  25   1.0000      -0.396174       -10.7804
  26   1.0000      -0.378275       -10.2934
  27   1.0000      -0.318937        -8.6787
  28   1.0000      -0.296547        -8.0695
  29   0.0000      -0.059524        -1.6197
  30   0.0000      -0.047595        -1.2951
  31   0.0000      -0.001950        -0.0531
  32   0.0000       0.011341         0.3086
  33   0.0000       0.014478         0.3940

                 SPIN DOWN ORBITALS
  NO   OCC          E(Eh)            E(eV)
   0   1.0000     -19.323771      -525.8265
   1   1.0000     -10.367788      -282.1219
   2   1.0000     -10.298135      -280.2265
   3   1.0000     -10.290880      -280.0291
   4   1.0000     -10.283248      -279.8214
   5   1.0000     -10.280799      -279.7548
   6   1.0000     -10.279394      -279.7165
   7   1.0000     -10.274416      -279.5811
   8   1.0000      -1.176929       -32.0259
   9   1.0000      -0.920960       -25.0606
  10   1.0000      -0.826862       -22.5001
  11   1.0000      -0.816289       -22.2123
  12   1.0000      -0.751237       -20.4422
  13   1.0000      -0.671187       -18.2639
  14   1.0000      -0.643852       -17.5201
  15   1.0000      -0.592121       -16.1124
  16   1.0000      -0.545574       -14.8458
  17   1.0000      -0.539667       -14.6851
  18   1.0000      -0.521720       -14.1967
  19   1.0000      -0.487214       -13.2578
  20   1.0000      -0.476442       -12.9647
  21   1.0000      -0.463545       -12.6137
  22   1.0000      -0.423645       -11.5280
  23   1.0000      -0.415047       -11.2940
  24   1.0000      -0.410002       -11.1567
  25   1.0000      -0.374485       -10.1903
  26   1.0000      -0.367846       -10.0096
  27   1.0000      -0.311197        -8.4681
  28   0.0000      -0.194975        -5.3055
  29   0.0000      -0.035197        -0.9578
  30   0.0000      -0.023330        -0.6348
  31   0.0000      -0.001077        -0.0293
  32   0.0000       0.011976         0.3259

MULLIKEN ATOMIC CHARGES AND SPIN POPULATIONS
--------------------------------------------
   0 C :   -0.424032    0.112166
   1 C :   -0.512352   -0.033295
   2 C :   -0.574083    0.394819
   3 C :   -0.380689   -0.098284
   4 C :   -0.822701    0.174553
   5 C :    0.947592    0.187188
   6 O :   -0.532644    0.229760
   7 C :   -0.688334   -0.015762
   8 H :    0.321116    0.010861
   9 H :    0.321384    0.010839
  10 H :    0.285131    0.001490
  11 H :    0.701947    0.001893
  12 H :    0.500095    0.001829
  13 H :    0.647196    0.012906
  14 H :    0.468881    0.001631
  15 H :    0.741492    0.007407
Sum of atomic charges         :    1.0000000

LOEWDIN ATOMIC CHARGES AND SPIN POPULATIONS
-------------------------------------------
   0 C :    0.277133    0.097019
   1 C :    0.263601    0.061221
   2 C :    0.285789    0.209012
   3 C :    0.254036    0.043551
   4 C :    0.276329    0.121134
   5 C :   -0.332773    0.164467
   6 O :    0.665830    0.197068
   7 C :    0.441299    0.022522
   8 H :   -0.140206    0.006077
   9 H :   -0.140245    0.006077
  10 H :   -0.151126   -0.000408
  11 H :   -0.137665    0.020314
  12 H :   -0.142094   -0.008081
  13 H :   -0.130503    0.047198
  14 H :   -0.138394   -0.001951
  15 H :   -0.151012    0.014777

  Mayer bond orders larger than 0.100000
B(  0-C ,  1-C ) :   1.3606 B(  0-C ,  2-C ) :   0.1726 B(  0-C ,  4-C ) :   0.3411
B(  0-C ,  5-C ) :   0.9344 B(  1-C ,  2-C ) :   1.2238 B(  1-C ,  3-C ) :  -0.1343
B(  1-C ,  5-C ) :  -0.3891 B(  1-C , 14-H ) :   0.6874 B(  1-C , 15-H ) :   0.1356
B(  2-C ,  3-C ) :   1.2098 B(  2-C ,  4-C ) :   0.3513 B(  2-C , 13-H ) :   0.3259
B(  3-C ,  4-C ) :   1.4977 B(  3-C ,  5-C ) :  -0.3143 B(  3-C , 12-H ) :   0.6424
B(  3-C , 15-H ) :   0.1072 B(  4-C ,  5-C ) :   0.7493 B(  4-C ,  6-O ) :   0.2188
B(  5-C ,  6-O ) :   0.8732 B(  6-O ,  7-C ) :   0.9889 B(  7-C ,  8-H ) :   0.8710
B(  7-C ,  9-H ) :   0.8707 B(  7-C , 10-H ) :   0.9325

Dispersion correction           -0.012910146
FINAL SINGLE POINT ENERGY      -346.289853353892

DIPOLE MOMENT
-------------

Method             : SCF
Type of density    : Electron Density
Multiplicity       :   2
Irrep              :   0
Energy             :  -346.2769432076598264 Eh
Relativity type    :
Basis              : AO
                                X                 Y                 Z
Electronic contribution:     -2.225780758      -1.601820515       0.000058844
Nuclear contribution   :      2.256738866       2.246354274      -0.000083298
                        -----------------------------------------
Total Dipole Moment    :      0.030958108       0.644533759      -0.000024454
                        -----------------------------------------
Magnitude (a.u.)       :      0.645276818
Magnitude (Debye)      :      1.640163325

Rotational constants in cm-1:             0.163746             0.052523             0.040083
Rotational constants in MHz :          4908.994994          1574.611095          1201.650329

                             ****ORCA TERMINATED NORMALLY****
TOTAL RUN TIME: 0 days 0 hours 4 minutes 48 seconds 815 msec
