                         Program Version 6.0.0  -   RELEASE  -
|  1> !PBE0 opt def2-SV(p) d3 TightSCF SlowConv RIJCOSX defgrid2
|  2>
|  3> %pal
|  4> nprocs 8
|  5> end
|  6>
|  7> %scf
|  8> MaxIter 1500
|  9> end
| 10>
| 11> %maxcore 3500
| 12>
| 13> !CPCM
| 14> %cpcm smd true
| 15> SMDsolvent "MeCN"
| 16> surfacetype gepol_ses
| 17> rsolv 2.19
| 18> end
| 19>
| 20> * xyz 1 2
| 21> C           1.36337197862367      0.00925782782262      0.00042331345329
| 22> C           0.74822645901465      1.29296895528656      0.00038316234352
| 23> C          -0.61529602246028      1.39626207073000      0.00023060917101
| 24> C          -1.42835414240665      0.22289484643639      0.00009324782531
| 25> C          -0.81975705014986     -1.06228254929373      0.00009847310954
| 26> C           0.54832834357610     -1.16073135173507      0.00023403456932
| 27> H           1.01965556748509     -2.14817388841103      0.00023835116044
| 28> H          -1.42717703035162     -1.96898347753981      0.00000365697629
| 29> O          -2.71426815111900      0.42982708435483     -0.00003024655139
| 30> C          -3.65743877124361     -0.63904368121668     -0.00016458675956
| 31> H          -4.64491010243250     -0.16049105257969     -0.00025717007063
| 32> H          -3.53752517507174     -1.25276547158578     -0.90821236062697
| 33> H          -3.53771725035146     -1.25281703649443      0.90787613291043
| 34> H          -1.11664261012245      2.36720004312394      0.00019734665612
| 35> H           1.36186872975284      2.19800021241604      0.00046058429736
| 36> S           3.05618464536732     -0.23274264105176      0.00049319565771
| 37> H           3.42654608188951      1.07420050973759     -0.00198104412179
| 38> *
| 39>
| 40>                          ****END OF INPUT****
 Total Charge           Charge          ....    1
 Multiplicity           Mult            ....    2
 Number of Electrons    NEL             ....   73
Dispersion correction           -0.016008096
FINAL SINGLE POINT ENERGY      -743.851191507445
Dispersion correction             ... done (  0.1 sec)
Dispersion correction           -0.016035469
FINAL SINGLE POINT ENERGY      -743.851282298206
Dispersion correction             ... done (  0.1 sec)
Dispersion correction           -0.016045642
FINAL SINGLE POINT ENERGY      -743.851277797914
Dispersion correction             ... done (  0.1 sec)
Dispersion correction           -0.016045239
FINAL SINGLE POINT ENERGY      -743.851291607736
Dispersion correction             ... done (  0.1 sec)
Dispersion correction           -0.016041961
FINAL SINGLE POINT ENERGY      -743.851294777228
Dispersion correction             ... done (  0.1 sec)
                    ***********************HURRAY********************

CARTESIAN COORDINATES (ANGSTROEM)
---------------------------------
  C      1.350962    0.003205   -0.000770
  C      0.749916    1.292057   -0.003263
  C     -0.612392    1.402363   -0.002189
  C     -1.428204    0.232663   -0.000641
  C     -0.830789   -1.057051   -0.002849
  C      0.535222   -1.164082   -0.002142
  H      0.999675   -2.154115   -0.002541
  H     -1.444276   -1.958807   -0.003237
  O     -2.715831    0.440375    0.002621
  C     -3.642217   -0.644492    0.002184
  H     -4.637741   -0.182379    0.004552
  H     -3.512980   -1.255230   -0.905614
  H     -3.510560   -1.259001    0.907227
  H     -1.103451    2.378011   -0.001813
  H      1.374393    2.188980   -0.006074
  S      3.045258   -0.231297    0.006553
  H      3.408113    1.081380    0.008085

 Multiplicity           Mult            ....    2
 Number of Electrons    NEL             ....   73
 Basis Dimension        Dim             ....  146

ORBITAL ENERGIES
----------------
                 SPIN UP ORBITALS
  NO   OCC          E(Eh)            E(eV)
   0   1.0000     -89.080343     -2423.9994
   1   1.0000     -19.311603      -525.4954
   2   1.0000     -10.365383      -282.0564
   3   1.0000     -10.336731      -281.2768
   4   1.0000     -10.294318      -280.1226
   5   1.0000     -10.292376      -280.0698
   6   1.0000     -10.288026      -279.9514
   7   1.0000     -10.281866      -279.7838
   8   1.0000     -10.281730      -279.7801
   9   1.0000      -8.082891      -219.9466
  10   1.0000      -6.023535      -163.9087
  11   1.0000      -6.020146      -163.8165
  12   1.0000      -6.019384      -163.7958
  13   1.0000      -1.161924       -31.6175
  14   1.0000      -0.941923       -25.6310
  15   1.0000      -0.871238       -23.7076
  16   1.0000      -0.822096       -22.3704
  17   1.0000      -0.794975       -21.6324
  18   1.0000      -0.735006       -20.0005
  19   1.0000      -0.677859       -18.4455
  20   1.0000      -0.642420       -17.4811
  21   1.0000      -0.592869       -16.1328
  22   1.0000      -0.564053       -15.3486
  23   1.0000      -0.535944       -14.5838
  24   1.0000      -0.535675       -14.5765
  25   1.0000      -0.495300       -13.4778
  26   1.0000      -0.484746       -13.1906
  27   1.0000      -0.474550       -12.9132
  28   1.0000      -0.453621       -12.3437
  29   1.0000      -0.449628       -12.2350
  30   1.0000      -0.416926       -11.3451
  31   1.0000      -0.410200       -11.1621
  32   1.0000      -0.406025       -11.0485
  33   1.0000      -0.377926       -10.2839
  34   1.0000      -0.347920        -9.4674
  35   1.0000      -0.321663        -8.7529
  36   1.0000      -0.268325        -7.3015
  37   0.0000      -0.056020        -1.5244
  38   0.0000      -0.047355        -1.2886
  39   0.0000      -0.003489        -0.0949
  40   0.0000       0.055794         1.5182
  41   0.0000       0.086183         2.3452

                 SPIN DOWN ORBITALS
  NO   OCC          E(Eh)            E(eV)
   0   1.0000     -89.078462     -2423.9482
   1   1.0000     -19.306497      -525.3565
   2   1.0000     -10.362428      -281.9760
   3   1.0000     -10.332701      -281.1671
   4   1.0000     -10.294527      -280.1283
   5   1.0000     -10.291635      -280.0496
   6   1.0000     -10.288054      -279.9522
   7   1.0000     -10.281117      -279.7634
   8   1.0000     -10.280716      -279.7525
   9   1.0000      -8.081010      -219.8955
  10   1.0000      -6.022432      -163.8787
  11   1.0000      -6.018357      -163.7678
  12   1.0000      -6.013676      -163.6404
  13   1.0000      -1.152583       -31.3634
  14   1.0000      -0.934310       -25.4239
  15   1.0000      -0.862651       -23.4739
  16   1.0000      -0.819802       -22.3080
  17   1.0000      -0.790004       -21.4971
  18   1.0000      -0.726266       -19.7627
  19   1.0000      -0.673417       -18.3246
  20   1.0000      -0.637966       -17.3599
  21   1.0000      -0.589961       -16.0537
  22   1.0000      -0.561911       -15.2904
  23   1.0000      -0.532019       -14.4770
  24   1.0000      -0.517303       -14.0765
  25   1.0000      -0.492947       -13.4138
  26   1.0000      -0.483667       -13.1613
  27   1.0000      -0.472078       -12.8459
  28   1.0000      -0.447685       -12.1821
  29   1.0000      -0.435750       -11.8574
  30   1.0000      -0.414953       -11.2915
  31   1.0000      -0.401049       -10.9131
  32   1.0000      -0.390275       -10.6199
  33   1.0000      -0.374885       -10.2012
  34   1.0000      -0.317973        -8.6525
  35   1.0000      -0.314371        -8.5545
  36   0.0000      -0.185763        -5.0549
  37   0.0000      -0.036163        -0.9840
  38   0.0000      -0.026365        -0.7174
  39   0.0000      -0.000536        -0.0146
  40   0.0000       0.060730         1.6526

MULLIKEN ATOMIC CHARGES AND SPIN POPULATIONS
--------------------------------------------
   0 C :   -0.057507    0.232486
   1 C :   -0.074279   -0.017526
   2 C :   -0.100648    0.070251
   3 C :    0.285320    0.192054
   4 C :   -0.171681    0.034910
   5 C :   -0.046640    0.038469
   6 H :    0.174107   -0.003296
   7 H :    0.175874   -0.003133
   8 O :   -0.251099    0.150123
   9 C :   -0.198010   -0.012866
  10 H :    0.192455   -0.000024
  11 H :    0.192345    0.011032
  12 H :    0.192363    0.011025
  13 H :    0.165715   -0.004777
  14 H :    0.172175   -0.000803
  15 S :    0.080341    0.313148
  16 H :    0.269167   -0.011074
Sum of atomic charges         :    1.0000000

LOEWDIN ATOMIC CHARGES AND SPIN POPULATIONS
-------------------------------------------
   0 C :   -0.144522    0.198102
   1 C :   -0.097587    0.010208
   2 C :   -0.090106    0.070936
   3 C :    0.104312    0.162309
   4 C :   -0.120370    0.047043
   5 C :   -0.079531    0.051766
   6 H :    0.171993   -0.001854
   7 H :    0.177547   -0.001729
   8 O :   -0.009551    0.155505
   9 C :   -0.192924   -0.005174
  10 H :    0.150685   -0.000047
  11 H :    0.148541    0.007943
  12 H :    0.148554    0.007941
  13 H :    0.175557   -0.002567
  14 H :    0.172712   -0.000603
  15 S :    0.332271    0.307009
  16 H :    0.152420   -0.006787

  Mayer bond orders larger than 0.100000
B(  0-C ,  1-C ) :   1.2198 B(  0-C ,  5-C ) :   1.1995 B(  0-C , 15-S ) :   1.2758
B(  1-C ,  2-C ) :   1.5586 B(  1-C , 14-H ) :   0.9451 B(  2-C ,  3-C ) :   1.2027
B(  2-C , 13-H ) :   0.9528 B(  3-C ,  4-C ) :   1.1749 B(  3-C ,  8-O ) :   1.2992
B(  4-C ,  5-C ) :   1.5679 B(  4-C ,  7-H ) :   0.9479 B(  5-C ,  6-H ) :   0.9454
B(  8-O ,  9-C ) :   0.8697 B(  9-C , 10-H ) :   0.9452 B(  9-C , 11-H ) :   0.9328
B(  9-C , 12-H ) :   0.9328 B( 15-S , 16-H ) :   0.8733

Dispersion correction           -0.016042050
FINAL SINGLE POINT ENERGY      -743.851295973686

DIPOLE MOMENT
-------------

Method             : SCF
Type of density    : Electron Density
Multiplicity       :   2
Irrep              :   0
Energy             :  -743.8352539241654995 Eh
Relativity type    :
Basis              : AO
                                X                 Y                 Z
Electronic contribution:      7.783701681       0.948576397       0.005676852
Nuclear contribution   :     -7.986803078      -1.035363506      -0.006892957
                        -----------------------------------------
Total Dipole Moment    :     -0.203101398      -0.086787109      -0.001216105
                        -----------------------------------------
Magnitude (a.u.)       :      0.220870231
Magnitude (Debye)      :      0.561407511

Rotational constants in cm-1:             0.154729             0.023736             0.020663
Rotational constants in MHz :          4638.649363           711.591322           619.455930

                             ****ORCA TERMINATED NORMALLY****
TOTAL RUN TIME: 0 days 0 hours 7 minutes 11 seconds 512 msec
