                         Program Version 6.0.0  -   RELEASE  -
|  1> !PBE0 opt aug-cc-pVTZ d3 TightSCF SlowConv RIJCOSX defgrid2
|  2>
|  3> %pal
|  4> nprocs 8
|  5> end
|  6>
|  7> %scf
|  8> MaxIter 1500
|  9> end
| 10>
| 11> %maxcore 3500
| 12>
| 13> !CPCM
| 14> %cpcm smd true
| 15> SMDsolvent "MeCN"
| 16> surfacetype gepol_ses
| 17> rsolv 2.19
| 18> end
| 19>
| 20> * xyz 0 1
| 21> C           2.43031351008729     -0.70749139029856      0.00001403239272
| 22> C           2.43032444825569      0.70745716976960      0.00001780057511
| 23> C           1.24225650957686      1.40066986227340      0.00001298600543
| 24> C           0.00000747832604      0.71479447718917      0.00000542687051
| 25> C          -1.24223111805275      1.40068893561610      0.00000324875952
| 26> C          -2.43030983452578      0.70749421287076     -0.00000358520312
| 27> C          -2.43032103578901     -0.70745426001962     -0.00000960120256
| 28> C          -1.24225352108494     -1.40066808823521     -0.00000641420954
| 29> C          -0.00000405709778     -0.71479302978643      0.00000150500237
| 30> C           1.24223524877496     -1.40068686163162      0.00000460886950
| 31> H           1.23824372924118     -2.49527550154318      0.00000243863973
| 32> H          -1.23827753101703     -2.49525698617010     -0.00000852848414
| 33> H          -3.38175156931066     -1.24754932619836     -0.00001429910497
| 34> H          -3.38173131512848      1.24760412689582     -0.00000496639229
| 35> H          -1.23823830440863      2.49527781567030      0.00000665226192
| 36> H           1.23827983240145      2.49525951167016      0.00001366019695
| 37> H           3.38175416757919      1.24755290950869      0.00002330946105
| 38> H           3.38173466217241     -1.24760147758094      0.00001812556182
| 39> *
| 40>
| 41>                          ****END OF INPUT****
 Total Charge           Charge          ....    0
 Multiplicity           Mult            ....    1
 Number of Electrons    NEL             ....   68
Dispersion correction           -0.018489409
FINAL SINGLE POINT ENERGY      -385.585642053511
Dispersion correction             ... done (  0.1 sec)
Dispersion correction           -0.018553897
FINAL SINGLE POINT ENERGY      -385.586561565864
Dispersion correction             ... done (  0.1 sec)
Dispersion correction           -0.018559946
FINAL SINGLE POINT ENERGY      -385.586565116100
Dispersion correction             ... done (  0.1 sec)
                    ***********************HURRAY********************

CARTESIAN COORDINATES (ANGSTROEM)
---------------------------------
  C      2.417673   -0.704833   -0.000212
  C      2.417687    0.704808   -0.000203
  C      1.236512    1.395796   -0.000100
  C      0.000009    0.711551   -0.000018
  C     -1.236485    1.395815    0.000093
  C     -2.417664    0.704840    0.000212
  C     -2.417671   -0.704793    0.000229
  C     -1.236513   -1.395802    0.000076
  C     -0.000002   -0.711567   -0.000032
  C      1.236497   -1.395819   -0.000115
  H      1.233368   -2.480162    0.000024
  H     -1.233425   -2.480151   -0.000054
  H     -3.359884   -1.239529   -0.000137
  H     -3.359873    1.239593   -0.000198
  H     -1.233342    2.480160   -0.000013
  H      1.233379    2.480146    0.000043
  H      3.359896    1.239577    0.000238
  H      3.359871   -1.239609    0.000241

 Multiplicity           Mult            ....    1
 Number of Electrons    NEL             ....   68
 Basis Dimension        Dim             ....  644

ORBITAL ENERGIES
----------------

  NO   OCC          E(Eh)            E(eV)
   0   2.0000     -10.240880      -278.6685
   1   2.0000     -10.240356      -278.6543
   2   2.0000     -10.229611      -278.3619
   3   2.0000     -10.229595      -278.3614
   4   2.0000     -10.229518      -278.3593
   5   2.0000     -10.229505      -278.3590
   6   2.0000     -10.228775      -278.3391
   7   2.0000     -10.228774      -278.3391
   8   2.0000     -10.228333      -278.3271
   9   2.0000     -10.228323      -278.3268
  10   2.0000      -0.907768       -24.7016
  11   2.0000      -0.851572       -23.1724
  12   2.0000      -0.801462       -21.8089
  13   2.0000      -0.767251       -20.8780
  14   2.0000      -0.744054       -20.2467
  15   2.0000      -0.646583       -17.5944
  16   2.0000      -0.632683       -17.2162
  17   2.0000      -0.616281       -16.7698
  18   2.0000      -0.531953       -14.4752
  19   2.0000      -0.524153       -14.2629
  20   2.0000      -0.510965       -13.9041
  21   2.0000      -0.458770       -12.4838
  22   2.0000      -0.456889       -12.4326
  23   2.0000      -0.431106       -11.7310
  24   2.0000      -0.428886       -11.6706
  25   2.0000      -0.416385       -11.3304
  26   2.0000      -0.410208       -11.1623
  27   2.0000      -0.378740       -10.3060
  28   2.0000      -0.350084        -9.5263
  29   2.0000      -0.348338        -9.4787
  30   2.0000      -0.339751        -9.2451
  31   2.0000      -0.306267        -8.3340
  32   2.0000      -0.263169        -7.1612
  33   2.0000      -0.234154        -6.3716
  34   0.0000      -0.044927        -1.2225
  35   0.0000      -0.017411        -0.4738
  36   0.0000       0.002693         0.0733
  37   0.0000       0.012421         0.3380
  38   0.0000       0.013851         0.3769

MULLIKEN ATOMIC CHARGES
-----------------------
   0 C :   -0.487115
   1 C :   -0.484185
   2 C :   -1.178881
   3 C :    1.477845
   4 C :   -1.181217
   5 C :   -0.478829
   6 C :   -0.479267
   7 C :   -1.180747
   8 C :    1.468278
   9 C :   -1.178621
  10 H :    0.189981
  11 H :    0.182486
  12 H :    0.742845
  13 H :    0.737322
  14 H :    0.184182
  15 H :    0.181523
  16 H :    0.747620
  17 H :    0.736780
Sum of atomic charges:   -0.0000000

LOEWDIN ATOMIC CHARGES
----------------------
   0 C :    0.196089
   1 C :    0.196096
   2 C :    0.212876
   3 C :   -0.134740
   4 C :    0.212881
   5 C :    0.196094
   6 C :    0.196089
   7 C :    0.212881
   8 C :   -0.134738
   9 C :    0.212882
  10 H :   -0.166925
  11 H :   -0.166922
  12 H :   -0.174680
  13 H :   -0.174677
  14 H :   -0.166928
  15 H :   -0.166924
  16 H :   -0.174672
  17 H :   -0.174682

  Mayer bond orders larger than 0.100000
B(  0-C ,  1-C ) :   1.2797 B(  0-C ,  3-C ) :  -0.2037 B(  0-C ,  7-C ) :   0.1018
B(  0-C ,  9-C ) :   1.3341 B(  0-C , 17-H ) :   0.1744 B(  1-C ,  2-C ) :   1.3226
B(  1-C ,  4-C ) :   0.1019 B(  1-C ,  8-C ) :  -0.2061 B(  1-C , 16-H ) :   0.1564
B(  2-C ,  4-C ) :   0.4620 B(  2-C ,  5-C ) :   0.1027 B(  2-C ,  8-C ) :  -0.2315
B(  2-C ,  9-C ) :   0.1042 B(  2-C , 15-H ) :   1.1822 B(  2-C , 16-H ) :  -0.2129
B(  3-C ,  6-C ) :  -0.2096 B(  3-C ,  7-C ) :  -0.2323 B(  3-C ,  8-C ) :   1.1828
B(  3-C ,  9-C ) :  -0.2282 B(  4-C ,  5-C ) :   1.3280 B(  4-C ,  7-C ) :   0.1049
B(  4-C ,  8-C ) :  -0.2297 B(  4-C , 13-H ) :  -0.2110 B(  4-C , 14-H ) :   1.1788
B(  5-C ,  6-C ) :   1.2699 B(  5-C ,  8-C ) :  -0.2072 B(  5-C , 13-H ) :   0.1737
B(  6-C ,  7-C ) :   1.3319 B(  6-C ,  9-C ) :   0.1017 B(  6-C , 12-H ) :   0.1659
B(  7-C ,  9-C ) :   0.4521 B(  7-C , 11-H ) :   1.1779 B(  7-C , 12-H ) :  -0.2121
B(  9-C , 10-H ) :   1.1638 B(  9-C , 17-H ) :  -0.2087

Dispersion correction           -0.018560145
FINAL SINGLE POINT ENERGY      -385.586565197112

DIPOLE MOMENT
-------------

Method             : SCF
Type of density    : Electron Density
Multiplicity       :   1
Irrep              :   0
Energy             :  -385.5680050525604088 Eh
Relativity type    :
Basis              : AO
                                X                 Y                 Z
Electronic contribution:      0.000021401      -0.000015921      -0.000120913
Nuclear contribution   :     -0.000038221       0.000023928       0.000174065
                        -----------------------------------------
Total Dipole Moment    :     -0.000016820       0.000008007       0.000053152
                        -----------------------------------------
Magnitude (a.u.)       :      0.000056322
Magnitude (Debye)      :      0.000143158

Rotational constants in cm-1:             0.104947             0.041528             0.029754
Rotational constants in MHz :          3146.243218          1244.990563           892.014255

                             ****ORCA TERMINATED NORMALLY****
TOTAL RUN TIME: 0 days 0 hours 20 minutes 28 seconds 891 msec
