                         Program Version 6.0.0  -   RELEASE  -
|  1> !PBE0 def2-SV(p) Opt Freq d3 TightSCF SlowConv RIJCOSX defgrid2
|  2>
|  3> %pal
|  4> nprocs 4
|  5> end
|  6>
|  7> %scf
|  8> MaxIter 1500
|  9> end
| 10>
| 11> %maxcore 3000
| 12>
| 13>
| 14>
| 15> * xyz 1 2
| 16> C    -0.7094621    1.3934146   -0.0504386
| 17> C    -1.8912115    0.7052452   -0.0246695
| 18> C    -1.8912592   -0.7051119    0.0246397
| 19> C    -0.7095645   -1.3933774    0.0505198
| 20> C     0.5336936   -0.7242925    0.0308007
| 21> N     1.6631242   -1.4423721    0.0698263
| 22> H     2.5905523   -1.0441706    0.0849698
| 23> H     1.5981450   -2.4507763    0.1113065
| 24> C     0.5337427    0.7242285   -0.0305594
| 25> N     1.6633181    1.4422331   -0.0697074
| 26> H     2.5903242    1.0439875   -0.0853200
| 27> H     1.5982467    2.4505982   -0.1112860
| 28> H    -0.7101228   -2.4715065    0.0909668
| 29> H    -2.8285267   -1.2369245    0.0436198
| 30> H    -2.8284390    1.2371304   -0.0437736
| 31> H    -0.7099412    2.4715489   -0.0909693
| 32> *
| 33>
| 34>                          ****END OF INPUT****
 Total Charge           Charge          ....    1
 Multiplicity           Mult            ....    2
 Number of Electrons    NEL             ....   57
Dispersion correction           -0.013823961
FINAL SINGLE POINT ENERGY      -342.049634163114
Dispersion correction             ... done (  0.1 sec)
Dispersion correction           -0.013785780
FINAL SINGLE POINT ENERGY      -342.050735498085
Dispersion correction             ... done (  0.1 sec)
Dispersion correction           -0.013784002
FINAL SINGLE POINT ENERGY      -342.050788695524
Dispersion correction             ... done (  0.1 sec)
FINAL SINGLE POINT ENERGY      -342.050807289926
FINAL SINGLE POINT ENERGY      -342.050812195940
FINAL SINGLE POINT ENERGY      -342.050821584476
FINAL SINGLE POINT ENERGY      -342.050845925661
FINAL SINGLE POINT ENERGY      -342.050841863099
FINAL SINGLE POINT ENERGY      -342.050910689128
FINAL SINGLE POINT ENERGY      -342.050993021905
FINAL SINGLE POINT ENERGY      -342.051109683440
FINAL SINGLE POINT ENERGY      -342.051128480477
Dispersion correction             ... done (  0.1 sec)
Dispersion correction           -0.013808378
FINAL SINGLE POINT ENERGY      -342.051135469258
Dispersion correction             ... done (  0.1 sec)
Dispersion correction           -0.013809853
FINAL SINGLE POINT ENERGY      -342.051136469441
Dispersion correction             ... done (  0.1 sec)
                    ***********************HURRAY********************

CARTESIAN COORDINATES (ANGSTROEM)
---------------------------------
  C     -0.715567    1.411471    0.024844
  C     -1.894858    0.712550    0.021855
  C     -1.894905   -0.712436   -0.021848
  C     -0.715660   -1.411439   -0.024855
  C      0.523782   -0.725808    0.027382
  N      1.678807   -1.403235    0.124474
  H      2.547672   -0.966358    0.414129
  H      1.665265   -2.419796    0.152307
  C      0.523830    0.725753   -0.027407
  N      1.678884    1.403111   -0.124545
  H      2.547759    0.966162   -0.414053
  H      1.665405    2.419671   -0.152371
  H     -0.713267   -2.504696   -0.024619
  H     -2.845759   -1.251370   -0.035026
  H     -2.845674    1.251546    0.035050
  H     -0.713094    2.504727    0.024612

 Multiplicity           Mult            ....    2
 Number of Electrons    NEL             ....   57
 Basis Dimension        Dim             ....  128

ORBITAL ENERGIES
----------------
                 SPIN UP ORBITALS
  NO   OCC          E(Eh)            E(eV)
   0   1.0000     -14.619746      -397.8235
   1   1.0000     -14.619681      -397.8217
   2   1.0000     -10.492423      -285.5134
   3   1.0000     -10.492173      -285.5065
   4   1.0000     -10.416580      -283.4495
   5   1.0000     -10.416267      -283.4410
   6   1.0000     -10.412071      -283.3268
   7   1.0000     -10.412000      -283.3249
   8   1.0000      -1.181302       -32.1449
   9   1.0000      -1.138661       -30.9846
  10   1.0000      -1.041925       -28.3522
  11   1.0000      -0.942442       -25.6452
  12   1.0000      -0.932294       -25.3690
  13   1.0000      -0.833497       -22.6806
  14   1.0000      -0.821896       -22.3649
  15   1.0000      -0.770492       -20.9662
  16   1.0000      -0.734885       -19.9972
  17   1.0000      -0.733197       -19.9513
  18   1.0000      -0.697958       -18.9924
  19   1.0000      -0.648476       -17.6459
  20   1.0000      -0.633874       -17.2486
  21   1.0000      -0.632410       -17.2088
  22   1.0000      -0.622666       -16.9436
  23   1.0000      -0.562835       -15.3155
  24   1.0000      -0.558215       -15.1898
  25   1.0000      -0.541151       -14.7255
  26   1.0000      -0.520797       -14.1716
  27   1.0000      -0.430839       -11.7237
  28   1.0000      -0.398589       -10.8462
  29   0.0000      -0.177905        -4.8411
  30   0.0000      -0.175441        -4.7740
  31   0.0000      -0.123831        -3.3696
  32   0.0000      -0.080312        -2.1854
  33   0.0000      -0.071891        -1.9563

                 SPIN DOWN ORBITALS
  NO   OCC          E(Eh)            E(eV)
   0   1.0000     -14.614186      -397.6722
   1   1.0000     -14.614122      -397.6705
   2   1.0000     -10.489250      -285.4270
   3   1.0000     -10.489025      -285.4209
   4   1.0000     -10.414318      -283.3880
   5   1.0000     -10.414038      -283.3804
   6   1.0000     -10.412835      -283.3476
   7   1.0000     -10.412777      -283.3461
   8   1.0000      -1.170891       -31.8616
   9   1.0000      -1.127784       -30.6886
  10   1.0000      -1.034813       -28.1587
  11   1.0000      -0.939750       -25.5719
  12   1.0000      -0.919515       -25.0213
  13   1.0000      -0.829477       -22.5712
  14   1.0000      -0.816942       -22.2301
  15   1.0000      -0.766272       -20.8513
  16   1.0000      -0.731276       -19.8990
  17   1.0000      -0.730550       -19.8793
  18   1.0000      -0.693887       -18.8816
  19   1.0000      -0.645296       -17.5594
  20   1.0000      -0.630556       -17.1583
  21   1.0000      -0.621842       -16.9212
  22   1.0000      -0.604078       -16.4378
  23   1.0000      -0.556512       -15.1434
  24   1.0000      -0.542358       -14.7583
  25   1.0000      -0.528827       -14.3901
  26   1.0000      -0.496140       -13.5007
  27   1.0000      -0.419461       -11.4141
  28   0.0000      -0.305837        -8.3222
  29   0.0000      -0.160850        -4.3770
  30   0.0000      -0.146894        -3.9972
  31   0.0000      -0.120139        -3.2691
  32   0.0000      -0.078455        -2.1349

MULLIKEN ATOMIC CHARGES AND SPIN POPULATIONS
--------------------------------------------
   0 C :   -0.128055   -0.076930
   1 C :   -0.054364    0.155759
   2 C :   -0.054365    0.155801
   3 C :   -0.128056   -0.076963
   4 C :    0.127350    0.204263
   5 N :   -0.344162    0.243332
   6 H :    0.292433   -0.008820
   7 H :    0.311745   -0.010846
   8 C :    0.127336    0.204249
   9 N :   -0.344143    0.243349
  10 H :    0.292432   -0.008824
  11 H :    0.311746   -0.010847
  12 H :    0.131277    0.001531
  13 H :    0.163776   -0.008292
  14 H :    0.163775   -0.008290
  15 H :    0.131276    0.001529
Sum of atomic charges         :    1.0000000

LOEWDIN ATOMIC CHARGES AND SPIN POPULATIONS
-------------------------------------------
   0 C :   -0.130811   -0.029862
   1 C :   -0.061871    0.131641
   2 C :   -0.061867    0.131671
   3 C :   -0.130812   -0.029886
   4 C :    0.043294    0.178138
   5 N :   -0.212423    0.235248
   6 H :    0.261863   -0.004889
   7 H :    0.276663   -0.006688
   8 C :    0.043297    0.178128
   9 N :   -0.212409    0.235262
  10 H :    0.261864   -0.004892
  11 H :    0.276664   -0.006689
  12 H :    0.158486    0.000514
  13 H :    0.164789   -0.004106
  14 H :    0.164789   -0.004105
  15 H :    0.158485    0.000513

  Mayer bond orders larger than 0.100000
B(  0-C ,  1-C ) :   1.5202 B(  0-C ,  8-C ) :   1.2483 B(  0-C , 15-H ) :   0.9583
B(  1-C ,  2-C ) :   1.1983 B(  1-C , 14-H ) :   0.9498 B(  2-C ,  3-C ) :   1.5202
B(  2-C , 13-H ) :   0.9498 B(  3-C ,  4-C ) :   1.2483 B(  3-C , 12-H ) :   0.9583
B(  4-C ,  5-N ) :   1.4337 B(  4-C ,  8-C ) :   1.1383 B(  5-N ,  6-H ) :   0.8503
B(  5-N ,  7-H ) :   0.8410 B(  8-C ,  9-N ) :   1.4337 B(  9-N , 10-H ) :   0.8503
B(  9-N , 11-H ) :   0.8410

Dispersion correction           -0.013809955
FINAL SINGLE POINT ENERGY      -342.051136644906

DIPOLE MOMENT
-------------

Method             : SCF
Type of density    : Electron Density
Multiplicity       :   2
Irrep              :   0
Energy             :  -342.0373266899800342 Eh
Relativity type    :
Basis              : AO
                                X                 Y                 Z
Electronic contribution:      0.115823856       0.000038098      -0.000035943
Nuclear contribution   :      1.369385413      -0.000054655       0.000118438
                        -----------------------------------------
Total Dipole Moment    :      1.485209268      -0.000016557       0.000082495
                        -----------------------------------------
Magnitude (a.u.)       :      1.485209271
Magnitude (Debye)      :      3.775101954

VIBRATIONAL FREQUENCIES
-----------------------

Scaling factor for frequencies =  1.000000000  (already applied!)

     0:       0.00 cm**-1
     1:       0.00 cm**-1
     2:       0.00 cm**-1
     3:       0.00 cm**-1
     4:       0.00 cm**-1
     5:       0.00 cm**-1
     6:     123.90 cm**-1
     7:     257.61 cm**-1
     8:     283.43 cm**-1
     9:     393.89 cm**-1
    10:     434.90 cm**-1
    11:     455.42 cm**-1
    12:     485.83 cm**-1
    13:     513.22 cm**-1
    14:     526.88 cm**-1
    15:     559.17 cm**-1
    16:     570.93 cm**-1
    17:     592.18 cm**-1
    18:     767.89 cm**-1
    19:     777.57 cm**-1
    20:     784.06 cm**-1
    21:     870.07 cm**-1
    22:     870.27 cm**-1
    23:     984.30 cm**-1
    24:    1021.08 cm**-1
    25:    1021.55 cm**-1
    26:    1026.08 cm**-1
    27:    1070.73 cm**-1
    28:    1182.68 cm**-1
    29:    1191.34 cm**-1
    30:    1324.52 cm**-1
    31:    1385.73 cm**-1
    32:    1399.15 cm**-1
    33:    1474.15 cm**-1
    34:    1528.97 cm**-1
    35:    1563.83 cm**-1
    36:    1640.31 cm**-1
    37:    1655.53 cm**-1
    38:    1692.15 cm**-1
    39:    1698.47 cm**-1
    40:    3215.68 cm**-1
    41:    3218.61 cm**-1
    42:    3233.77 cm**-1
    43:    3243.21 cm**-1
    44:    3539.15 cm**-1
    45:    3551.56 cm**-1
    46:    3643.02 cm**-1
    47:    3648.90 cm**-1

IR SPECTRUM
-----------

 Mode   freq       eps      Int      T**2         TX        TY        TZ
       cm**-1   L/(mol*cm) km/mol    a.u.
----------------------------------------------------------------------------
  6:    123.90   0.000370    1.87  0.000933  (-0.030539  0.000002 -0.000012)
  7:    257.61   0.001702    8.60  0.002062  ( 0.000002 -0.009004  0.044505)
  8:    283.43   0.002932   14.82  0.003228  (-0.056817  0.000005 -0.000012)
  9:    393.89   0.006549   33.10  0.005189  (-0.000026  0.028811  0.066019)
 10:    434.90   0.002390   12.08  0.001715  ( 0.000012  0.035877  0.020689)
 11:    455.42   0.003482   17.59  0.002386  ( 0.048843 -0.000009  0.000025)
 12:    485.83   0.035735  180.59  0.022954  (-0.000002  0.026618  0.149149)
 13:    513.22   0.003358   16.97  0.002042  ( 0.000005  0.019853  0.040590)
 14:    526.88   0.005091   25.73  0.003015  ( 0.054911 -0.000001  0.000047)
 15:    559.17   0.004142   20.93  0.002312  ( 0.048078  0.000045  0.000253)
 16:    570.93   0.028629  144.68  0.015648  (-0.000152  0.028542  0.121794)
 17:    592.18   0.000606    3.06  0.000320  (-0.017877  0.000003  0.000015)
 18:    767.89   0.000045    0.23  0.000018  ( 0.004260 -0.000003 -0.000023)
 19:    777.57   0.000106    0.53  0.000042  (-0.006507  0.000002 -0.000002)
 20:    784.06   0.016677   84.28  0.006638  (-0.000001  0.002678  0.081429)
 21:    870.07   0.000001    0.01  0.000000  (-0.000035  0.000570  0.000265)
 22:    870.27   0.000187    0.95  0.000067  (-0.008192 -0.000001  0.000004)
 23:    984.30   0.000447    2.26  0.000142  (-0.000000 -0.006285 -0.010107)
 24:   1021.08   0.000006    0.03  0.000002  (-0.001351  0.000032 -0.000011)
 25:   1021.55   0.000628    3.17  0.000192  ( 0.000000 -0.013177  0.004250)
 26:   1026.08   0.000121    0.61  0.000037  ( 0.006072  0.000008 -0.000003)
 27:   1070.73   0.000032    0.16  0.000009  (-0.003073 -0.000000 -0.000000)
 28:   1182.68   0.006431   32.50  0.001697  (-0.000001  0.041152 -0.001862)
 29:   1191.34   0.000000    0.00  0.000000  ( 0.000099 -0.000009  0.000001)
 30:   1324.52   0.000403    2.04  0.000095  ( 0.000001  0.009714 -0.000797)
 31:   1385.73   0.000007    0.03  0.000002  ( 0.000004  0.000997 -0.000748)
 32:   1399.15   0.000444    2.24  0.000099  ( 0.009953 -0.000003 -0.000001)
 33:   1474.15   0.003460   17.49  0.000732  (-0.027064  0.000001 -0.000000)
 34:   1528.97   0.004733   23.92  0.000966  ( 0.000002 -0.031054 -0.001334)
 35:   1563.83   0.017796   89.93  0.003551  (-0.059592  0.000003  0.000001)
 36:   1640.31   0.000968    4.89  0.000184  ( 0.013571  0.000009 -0.000001)
 37:   1655.53   0.001147    5.80  0.000216  (-0.000008 -0.012553  0.007660)
 38:   1692.15   0.033647  170.04  0.006205  (-0.000022  0.076348 -0.019393)
 39:   1698.47   0.050820  256.82  0.009337  (-0.096630 -0.000015  0.000002)
 40:   3215.68   0.000155    0.79  0.000015  ( 0.000001 -0.003877  0.000229)
 41:   3218.61   0.000031    0.16  0.000003  (-0.001741  0.000004 -0.000000)
 42:   3233.77   0.000260    1.32  0.000025  ( 0.000012  0.005013 -0.000109)
 43:   3243.21   0.000787    3.98  0.000076  ( 0.008704 -0.000006 -0.000000)
 44:   3539.15   0.054105  273.43  0.004771  ( 0.000059 -0.067494  0.014674)
 45:   3551.56   0.036859  186.27  0.003239  ( 0.056909  0.000071 -0.000014)
 46:   3643.02   0.018628   94.14  0.001596  ( 0.000097  0.038267  0.011460)
 47:   3648.90   0.012018   60.73  0.001028  ( 0.032059 -0.000114 -0.000033)

--------------------------
THERMOCHEMISTRY AT 298.15K
--------------------------

Temperature         ...   298.15 K
Pressure            ...     1.00 atm
Total Mass          ...   108.14 AMU
Quasi RRHO          ...     True
Cut-Off Frequency   ...     1.00 cm^-1

Throughout the following assumptions are being made:
  (1) The electronic state is orbitally nondegenerate
      but the spin degeneracy is treated
  (2) There are no thermally accessible electronically excited states
  (3) Hindered rotations indicated by low frequency modes are not
      treated as such but are treated as vibrations and this may
      cause some error
  (4) All equations used are the standard statistical mechanics
      equations for an ideal gas
  (5) All vibrations are strictly harmonic

freq.     123.90  E(vib)   ...       0.43
freq.     257.61  E(vib)   ...       0.30
freq.     283.43  E(vib)   ...       0.28
freq.     393.89  E(vib)   ...       0.20
freq.     434.90  E(vib)   ...       0.17
freq.     455.42  E(vib)   ...       0.16
freq.     485.83  E(vib)   ...       0.15
freq.     513.22  E(vib)   ...       0.13
freq.     526.88  E(vib)   ...       0.13
freq.     559.17  E(vib)   ...       0.12
freq.     570.93  E(vib)   ...       0.11
freq.     592.18  E(vib)   ...       0.10
freq.     767.89  E(vib)   ...       0.06
freq.     777.57  E(vib)   ...       0.05
freq.     784.06  E(vib)   ...       0.05
freq.     870.07  E(vib)   ...       0.04
freq.     870.27  E(vib)   ...       0.04
freq.     984.30  E(vib)   ...       0.02
freq.    1021.08  E(vib)   ...       0.02
freq.    1021.55  E(vib)   ...       0.02
freq.    1026.08  E(vib)   ...       0.02
freq.    1070.73  E(vib)   ...       0.02
freq.    1182.68  E(vib)   ...       0.01
freq.    1191.34  E(vib)   ...       0.01
freq.    1324.52  E(vib)   ...       0.01
freq.    1385.73  E(vib)   ...       0.00
freq.    1399.15  E(vib)   ...       0.00
freq.    1474.15  E(vib)   ...       0.00
freq.    1528.97  E(vib)   ...       0.00
freq.    1563.83  E(vib)   ...       0.00
freq.    1640.31  E(vib)   ...       0.00
freq.    1655.53  E(vib)   ...       0.00
freq.    1692.15  E(vib)   ...       0.00
freq.    1698.47  E(vib)   ...       0.00
freq.    3215.68  E(vib)   ...       0.00
freq.    3218.61  E(vib)   ...       0.00
freq.    3233.77  E(vib)   ...       0.00
freq.    3243.21  E(vib)   ...       0.00
freq.    3539.15  E(vib)   ...       0.00
freq.    3551.56  E(vib)   ...       0.00
freq.    3643.02  E(vib)   ...       0.00
freq.    3648.90  E(vib)   ...       0.00

------------
INNER ENERGY
------------

The inner energy is: U= E(el) + E(ZPE) + E(vib) + E(rot) + E(trans)
    E(el)   - is the total energy from the electronic structure calculation
              = E(kin-el) + E(nuc-el) + E(el-el) + E(nuc-nuc)
    E(ZPE)  - the the zero temperature vibrational energy from the frequency calculation
    E(vib)  - the the finite temperature correction to E(ZPE) due to population
              of excited vibrational states
    E(rot)  - is the rotational thermal energy
    E(trans)- is the translational thermal energy

Summary of contributions to the inner energy U:
Electronic energy                ...   -342.05113664 Eh
Zero point energy                ...      0.13537259 Eh      84.95 kcal/mol
Thermal vibrational correction   ...      0.00426751 Eh       2.68 kcal/mol
Thermal rotational correction    ...      0.00141627 Eh       0.89 kcal/mol
Thermal translational correction ...      0.00141627 Eh       0.89 kcal/mol
-----------------------------------------------------------------------
Total thermal energy                   -341.90866400 Eh

Summary of corrections to the electronic energy:
(perhaps to be used in another calculation)
Total thermal correction                  0.00710005 Eh       4.46 kcal/mol
Non-thermal (ZPE) correction              0.13537259 Eh      84.95 kcal/mol
-----------------------------------------------------------------------
Total correction                          0.14247264 Eh      89.40 kcal/mol

--------
ENTHALPY
--------

The enthalpy is H = U + kB*T
                kB is Boltzmann's constant
Total thermal energy              ...   -341.90866400 Eh
Thermal Enthalpy correction       ...      0.00094421 Eh       0.59 kcal/mol
-----------------------------------------------------------------------
Total Enthalpy                    ...   -341.90771980 Eh

Note: Only C1 symmetry has been detected, increase convergence thresholds
      if your molecule has a higher symmetry. Symmetry factor of 1.0 is
      used for the rotational entropy correction.

Note: Rotational entropy computed according to Herzberg
Infrared and Raman Spectra, Chapter V,1, Van Nostrand Reinhold, 1945
Point Group:  C1, Symmetry Number:   1
Rotational constants in cm-1:     0.106540     0.076353     0.044639

Vibrational entropy computed according to the QRRHO of S. Grimme
Chem.Eur.J. 2012 18 9955 using a reference frequency of 100.0 cm-1

-------
ENTROPY
-------

The entropy contributions are T*S = T*(S(el)+S(vib)+S(rot)+S(trans))
     S(el)   - electronic entropy
     S(vib)  - vibrational entropy
     S(rot)  - rotational entropy
     S(trans)- translational entropy
The entropies will be listed as multiplied by the temperature to get
units of energy

Electronic entropy                ...      0.00065446 Eh      0.41 kcal/mol
Vibrational entropy               ...      0.00654354 Eh      4.11 kcal/mol
Rotational entropy                ...      0.01325013 Eh      8.31 kcal/mol
Translational entropy             ...      0.01898213 Eh     11.91 kcal/mol
-----------------------------------------------------------------------
Final entropy term                ...      0.03943025 Eh     24.74 kcal/mol

In case the symmetry of your molecule has not been determined correctly
or in case you have a reason to use a different symmetry number we print
out the resulting rotational entropy values for sn=1,12:

 non-linear molecules -----------------------------------
|  sn= 1 | S(rot)=       0.01325013 Eh      8.31 kcal/mol|
|  sn= 2 | S(rot)=       0.01259567 Eh      7.90 kcal/mol|
|  sn= 3 | S(rot)=       0.01221284 Eh      7.66 kcal/mol|
|  sn= 4 | S(rot)=       0.01194122 Eh      7.49 kcal/mol|
|  sn= 5 | S(rot)=       0.01173053 Eh      7.36 kcal/mol|
|  sn= 6 | S(rot)=       0.01155839 Eh      7.25 kcal/mol|
|  sn= 7 | S(rot)=       0.01141284 Eh      7.16 kcal/mol|
|  sn= 8 | S(rot)=       0.01128676 Eh      7.08 kcal/mol|
|  sn= 9 | S(rot)=       0.01117555 Eh      7.01 kcal/mol|
|  sn=10 | S(rot)=       0.01107607 Eh      6.95 kcal/mol|
|  sn=11 | S(rot)=       0.01098608 Eh      6.89 kcal/mol|
|  sn=12 | S(rot)=       0.01090393 Eh      6.84 kcal/mol|
 linear molecules ---------------------------------------
|  Dinfh | S(rot)=       0.00826141 Eh      5.18 kcal/mol|
|  Cinfv | S(rot)=       0.00891587 Eh      5.59 kcal/mol|
 --------------------------------------------------------

                             ****ORCA TERMINATED NORMALLY****
TOTAL RUN TIME: 0 days 0 hours 15 minutes 21 seconds 175 msec
