                         Program Version 6.0.0  -   RELEASE  -
|  1> !TPSSh aug-cc-pVTZ d3 TightSCF SlowConv RIJCOSX defgrid2
|  2>
|  3> %pal
|  4> nprocs 4
|  5> end
|  6>
|  7> %scf
|  8> MaxIter 1500
|  9> end
| 10>
| 11> %maxcore 3000
| 12>
| 13> !CPCM
| 14> %cpcm smd true
| 15> SMDsolvent "MeCN"
| 16> surfacetype gepol_ses
| 17> rsolv 2.19
| 18> end
| 19>
| 20> * xyz 0 1
| 21> C           1.11186063431218     -1.27161750848334      0.03529687525431
| 22> C           0.40062560849469      0.06050080568744      0.01645658990368
| 23> C           1.09132291899843      1.22728525455366     -0.01481187748794
| 24> C           2.59071448413322      1.31213757575100     -0.04259953894168
| 25> C           3.24159815994134     -0.01937627947586     -0.39841325306825
| 26> C           2.58911379103733     -1.14676967388403      0.38832716012891
| 27> H           3.09748891391144     -2.10891626969463      0.20096696093946
| 28> H           2.69042588645759     -0.93817776710244      1.47032103152836
| 29> H           4.32799261089383      0.01691698871123     -0.20339895848800
| 30> H           3.11607401581807     -0.21456505742642     -1.48081651387058
| 31> H           2.90797745861562      2.08798412644276     -0.76484604682040
| 32> H           2.97758486033447      1.65547047948827      0.94073256876005
| 33> H           0.54718288972158      2.17640255493605     -0.01902463744638
| 34> N          -0.97616721213332      0.00495853491955      0.02697160227337
| 35> C          -1.78872482665766      1.19747534852265      0.05715418513192
| 36> C          -3.21005262050385      0.66964169739812      0.23596327149758
| 37> C          -3.15237336592481     -0.69599286303147     -0.44293484397097
| 38> C          -1.76610643119617     -1.20659042879325     -0.05714971676551
| 39> H          -1.36563278919925     -1.91141795135958     -0.80640934529533
| 40> H          -1.80537787661672     -1.75015520174994      0.91214209774396
| 41> H          -3.95970487602702     -1.37895631866201     -0.13218330548580
| 42> H          -3.21412175894358     -0.57519572273874     -1.53925950514829
| 43> H          -3.97216674301970      1.34137885928184     -0.19076791065005
| 44> H          -3.43419513408562      0.54752707903326      1.31073431906276
| 45> H          -1.48163666786281      1.86730753786198      0.88332008233158
| 46> H          -1.67922253541657      1.78041926532680     -0.88331716928986
| 47> H           0.61356353671055     -1.94715361756419      0.75320195239957
| 48> H           1.00544556820675     -1.75500544794871     -0.95629237422648
| 49> *
| 50>
| 51>                          ****END OF INPUT****

CARTESIAN COORDINATES (ANGSTROEM)
---------------------------------
  C      1.111861   -1.271618    0.035297
  C      0.400626    0.060501    0.016457
  C      1.091323    1.227285   -0.014812
  C      2.590714    1.312138   -0.042600
  C      3.241598   -0.019376   -0.398413
  C      2.589114   -1.146770    0.388327
  H      3.097489   -2.108916    0.200967
  H      2.690426   -0.938178    1.470321
  H      4.327993    0.016917   -0.203399
  H      3.116074   -0.214565   -1.480817
  H      2.907977    2.087984   -0.764846
  H      2.977585    1.655470    0.940733
  H      0.547183    2.176403   -0.019025
  N     -0.976167    0.004959    0.026972
  C     -1.788725    1.197475    0.057154
  C     -3.210053    0.669642    0.235963
  C     -3.152373   -0.695993   -0.442935
  C     -1.766106   -1.206590   -0.057150
  H     -1.365633   -1.911418   -0.806409
  H     -1.805378   -1.750155    0.912142
  H     -3.959705   -1.378956   -0.132183
  H     -3.214122   -0.575196   -1.539260
  H     -3.972167    1.341379   -0.190768
  H     -3.434195    0.547527    1.310734
  H     -1.481637    1.867308    0.883320
  H     -1.679223    1.780419   -0.883317
  H      0.613564   -1.947154    0.753202
  H      1.005446   -1.755005   -0.956292

 Total Charge           Charge          ....    0
 Multiplicity           Mult            ....    1
 Number of Electrons    NEL             ....   84
 Basis Dimension        Dim             ....  897

ORBITAL ENERGIES
----------------

  NO   OCC          E(Eh)            E(eV)
   0   2.0000     -14.248969      -387.7342
   1   2.0000     -10.135125      -275.7908
   2   2.0000     -10.133395      -275.7437
   3   2.0000     -10.132245      -275.7124
   4   2.0000     -10.106881      -275.0222
   5   2.0000     -10.105826      -274.9935
   6   2.0000     -10.105545      -274.9859
   7   2.0000     -10.100600      -274.8513
   8   2.0000     -10.100277      -274.8425
   9   2.0000     -10.097751      -274.7738
  10   2.0000     -10.075761      -274.1754
  11   2.0000      -0.923443       -25.1281
  12   2.0000      -0.804628       -21.8950
  13   2.0000      -0.760605       -20.6971
  14   2.0000      -0.718044       -19.5390
  15   2.0000      -0.699765       -19.0416
  16   2.0000      -0.688149       -18.7255
  17   2.0000      -0.599690       -16.3184
  18   2.0000      -0.589380       -16.0378
  19   2.0000      -0.552800       -15.0425
  20   2.0000      -0.546055       -14.8589
  21   2.0000      -0.503747       -13.7076
  22   2.0000      -0.474043       -12.8994
  23   2.0000      -0.470315       -12.7979
  24   2.0000      -0.429718       -11.6932
  25   2.0000      -0.413134       -11.2419
  26   2.0000      -0.402702       -10.9581
  27   2.0000      -0.401154       -10.9160
  28   2.0000      -0.396204       -10.7813
  29   2.0000      -0.379286       -10.3209
  30   2.0000      -0.364077        -9.9070
  31   2.0000      -0.355366        -9.6700
  32   2.0000      -0.348840        -9.4924
  33   2.0000      -0.348403        -9.4805
  34   2.0000      -0.320472        -8.7205
  35   2.0000      -0.318536        -8.6678
  36   2.0000      -0.305681        -8.3180
  37   2.0000      -0.301050        -8.1920
  38   2.0000      -0.294334        -8.0092
  39   2.0000      -0.281740        -7.6665
  40   2.0000      -0.260555        -7.0901
  41   2.0000      -0.161555        -4.3961
  42   0.0000      -0.006670        -0.1815
  43   0.0000       0.004698         0.1278
  44   0.0000       0.009604         0.2613
  45   0.0000       0.010074         0.2741
  46   0.0000       0.021903         0.5960

MULLIKEN ATOMIC CHARGES
-----------------------
   0 C :    0.312519
   1 C :    0.120952
   2 C :   -0.477212
   3 C :    0.045713
   4 C :    0.019982
   5 C :   -0.165139
   6 H :   -0.052368
   7 H :    0.025596
   8 H :   -0.062321
   9 H :    0.044086
  10 H :    0.066081
  11 H :    0.067664
  12 H :   -0.158501
  13 N :    0.128577
  14 C :   -0.132999
  15 C :   -0.094387
  16 C :   -0.031956
  17 C :   -0.064169
  18 H :    0.045068
  19 H :    0.048980
  20 H :    0.005229
  21 H :   -0.000918
  22 H :    0.011835
  23 H :   -0.008687
  24 H :    0.063477
  25 H :    0.053855
  26 H :    0.080586
  27 H :    0.108457
Sum of atomic charges:   -0.0000000

LOEWDIN ATOMIC CHARGES
----------------------
   0 C :    0.273547
   1 C :   -0.194896
   2 C :    0.230710
   3 C :    0.228221
   4 C :    0.259275
   5 C :    0.274405
   6 H :   -0.128891
   7 H :   -0.127469
   8 H :   -0.132646
   9 H :   -0.130604
  10 H :   -0.146880
  11 H :   -0.142531
  12 H :   -0.206479
  13 N :    0.276430
  14 C :    0.166770
  15 C :    0.300396
  16 C :    0.298535
  17 C :    0.181190
  18 H :   -0.133025
  19 H :   -0.117726
  20 H :   -0.126992
  21 H :   -0.128116
  22 H :   -0.128253
  23 H :   -0.129253
  24 H :   -0.131909
  25 H :   -0.117828
  26 H :   -0.141496
  27 H :   -0.124484

  Mayer bond orders larger than 0.100000
B(  0-C ,  1-C ) :   0.5997 B(  0-C ,  5-C ) :   1.0965 B(  0-C , 26-H ) :   0.9210
B(  0-C , 27-H ) :   0.8967 B(  1-C ,  2-C ) :   0.7491 B(  1-C ,  3-C ) :  -0.1276
B(  1-C , 13-N ) :   0.4571 B(  1-C , 17-C ) :  -0.1511 B(  2-C ,  3-C ) :   0.9395
B(  2-C ,  4-C ) :   0.1265 B(  2-C , 12-H ) :   1.0786 B(  2-C , 13-N ) :  -0.3671
B(  2-C , 17-C ) :   0.1309 B(  3-C ,  4-C ) :   1.0665 B(  3-C , 10-H ) :   0.9125
B(  3-C , 11-H ) :   0.9645 B(  4-C ,  5-C ) :   1.0787 B(  4-C ,  8-H ) :   0.9913
B(  4-C ,  9-H ) :   0.9597 B(  5-C ,  6-H ) :   0.9464 B(  5-C ,  7-H ) :   0.9869
B( 13-N , 14-C ) :   0.8995 B( 13-N , 17-C ) :   0.8155 B( 14-C , 15-C ) :   1.1258
B( 14-C , 24-H ) :   0.9713 B( 14-C , 25-H ) :   0.9781 B( 15-C , 16-C ) :   1.1152
B( 15-C , 22-H ) :   0.9496 B( 15-C , 23-H ) :   0.9967 B( 16-C , 17-C ) :   1.0797
B( 16-C , 20-H ) :   0.9495 B( 16-C , 21-H ) :   0.9957 B( 17-C , 18-H ) :   0.9677
B( 17-C , 19-H ) :   0.9663

Dispersion correction           -0.033798315
FINAL SINGLE POINT ENERGY      -446.272797285225

DIPOLE MOMENT
-------------

Method             : SCF
Type of density    : Electron Density
Multiplicity       :   1
Irrep              :   0
Energy             :  -446.2389989703927995 Eh
Relativity type    :
Basis              : AO
                                X                 Y                 Z
Electronic contribution:     -1.142064199       0.496268710       0.146013528
Nuclear contribution   :      0.342331497      -1.087953366      -0.177536996
                        -----------------------------------------
Total Dipole Moment    :     -0.799732702      -0.591684656      -0.031523468
                        -----------------------------------------
Magnitude (a.u.)       :      0.995317465
Magnitude (Debye)      :      2.529895941

Rotational constants in cm-1:             0.091846             0.021037             0.017897
Rotational constants in MHz :          2753.468293           630.660673           536.548584

                             ****ORCA TERMINATED NORMALLY****
TOTAL RUN TIME: 0 days 0 hours 9 minutes 23 seconds 867 msec
