                         Program Version 6.0.0  -   RELEASE  -
|  1> !TPSSh aug-cc-pVTZ d3 TightSCF SlowConv RIJCOSX defgrid2
|  2>
|  3> %pal
|  4> nprocs 4
|  5> end
|  6>
|  7> %scf
|  8> MaxIter 1500
|  9> end
| 10>
| 11> %maxcore 3000
| 12>
| 13> !CPCM
| 14> %cpcm smd true
| 15> SMDsolvent "MeCN"
| 16> surfacetype gepol_ses
| 17> rsolv 2.19
| 18> end
| 19>
| 20> * xyz 0 1
| 21> N           0.15975924296332      0.12445058338132      0.31604288059979
| 22> C          -1.19113288858807     -0.03866597413313      0.81654672996346
| 23> C          -2.31404669003534     -0.01392479742617     -0.22115980972317
| 24> H          -3.29712795220661     -0.11050189519336      0.27216270478690
| 25> H          -2.22374427381768     -0.84298980217516     -0.94495572722258
| 26> H          -2.31766293194652      0.93130971057126     -0.79241152719390
| 27> H          -1.24118777155842     -0.98367549326804      1.38531777446702
| 28> H          -1.36414427314090      0.76090167006913      1.55962872548440
| 29> C           0.62547089775175     -0.92869162394065     -0.56188129632475
| 30> C           0.59510137492734     -2.31310993961179      0.06527507131526
| 31> H          -0.43217334595978     -2.68538495815961      0.21937250172711
| 32> H           1.11073003856311     -3.03735318800821     -0.58821336851619
| 33> H           1.10594756855008     -2.30061285180890      1.04369021631712
| 34> H           0.06636480368987     -0.94738167933480     -1.52902550894480
| 35> H           1.66989109901219     -0.69687695874228     -0.82974302531472
| 36> C           0.44663628376999      1.45259534411955     -0.18717965378079
| 37> C           1.91168679391593      1.84575888559843     -0.05684387193733
| 38> H           2.57178979071434      1.21847816004489     -0.68008856196741
| 39> H           2.23976832497324      1.74559120055302      0.99176343824238
| 40> H           2.05890339514312      2.89253491311342     -0.37523787624847
| 41> H           0.12405895964874      1.58040814853664     -1.24813910560320
| 42> H          -0.15649294636972      2.16687674581443      0.40066148987389
| 43> *
| 44>
| 45>                          ****END OF INPUT****

CARTESIAN COORDINATES (ANGSTROEM)
---------------------------------
  N      0.159759    0.124451    0.316043
  C     -1.191133   -0.038666    0.816547
  C     -2.314047   -0.013925   -0.221160
  H     -3.297128   -0.110502    0.272163
  H     -2.223744   -0.842990   -0.944956
  H     -2.317663    0.931310   -0.792412
  H     -1.241188   -0.983675    1.385318
  H     -1.364144    0.760902    1.559629
  C      0.625471   -0.928692   -0.561881
  C      0.595101   -2.313110    0.065275
  H     -0.432173   -2.685385    0.219373
  H      1.110730   -3.037353   -0.588213
  H      1.105948   -2.300613    1.043690
  H      0.066365   -0.947382   -1.529026
  H      1.669891   -0.696877   -0.829743
  C      0.446636    1.452595   -0.187180
  C      1.911687    1.845759   -0.056844
  H      2.571790    1.218478   -0.680089
  H      2.239768    1.745591    0.991763
  H      2.058903    2.892535   -0.375238
  H      0.124059    1.580408   -1.248139
  H     -0.156493    2.166877    0.400661

 Total Charge           Charge          ....    0
 Multiplicity           Mult            ....    1
 Number of Electrons    NEL             ....   58
 Basis Dimension        Dim             ....  667

ORBITAL ENERGIES
----------------

  NO   OCC          E(Eh)            E(eV)
   0   2.0000     -14.229306      -387.1991
   1   2.0000     -10.126556      -275.5576
   2   2.0000     -10.125897      -275.5397
   3   2.0000     -10.125605      -275.5317
   4   2.0000     -10.096923      -274.7513
   5   2.0000     -10.095778      -274.7201
   6   2.0000     -10.094390      -274.6823
   7   2.0000      -0.895758       -24.3748
   8   2.0000      -0.734371       -19.9833
   9   2.0000      -0.729165       -19.8416
  10   2.0000      -0.678900       -18.4738
  11   2.0000      -0.608874       -16.5683
  12   2.0000      -0.592349       -16.1186
  13   2.0000      -0.524291       -14.2667
  14   2.0000      -0.463822       -12.6212
  15   2.0000      -0.450361       -12.2549
  16   2.0000      -0.428320       -11.6552
  17   2.0000      -0.413011       -11.2386
  18   2.0000      -0.388081       -10.5602
  19   2.0000      -0.374878       -10.2010
  20   2.0000      -0.367832       -10.0092
  21   2.0000      -0.352090        -9.5809
  22   2.0000      -0.345680        -9.4064
  23   2.0000      -0.338054        -9.1989
  24   2.0000      -0.326341        -8.8802
  25   2.0000      -0.318027        -8.6540
  26   2.0000      -0.309273        -8.4158
  27   2.0000      -0.299164        -8.1407
  28   2.0000      -0.188279        -5.1233
  29   0.0000      -0.002193        -0.0597
  30   0.0000       0.008829         0.2403
  31   0.0000       0.010062         0.2738
  32   0.0000       0.013241         0.3603
  33   0.0000       0.031702         0.8627

MULLIKEN ATOMIC CHARGES
-----------------------
   0 N :   -0.151399
   1 C :    0.111225
   2 C :   -0.349704
   3 H :    0.039068
   4 H :    0.145148
   5 H :    0.112993
   6 H :   -0.075261
   7 H :    0.028290
   8 C :    0.093918
   9 C :   -0.365468
  10 H :    0.195136
  11 H :   -0.055740
  12 H :    0.126937
  13 H :    0.024799
  14 H :    0.128762
  15 C :   -0.067821
  16 C :   -0.414843
  17 H :    0.137340
  18 H :    0.097290
  19 H :    0.017955
  20 H :    0.073915
  21 H :    0.147459
Sum of atomic charges:   -0.0000000

LOEWDIN ATOMIC CHARGES
----------------------
   0 N :    0.267698
   1 C :    0.127449
   2 C :    0.575916
   3 H :   -0.161184
   4 H :   -0.168746
   5 H :   -0.163427
   6 H :   -0.157783
   7 H :   -0.141691
   8 C :    0.111868
   9 C :    0.572244
  10 H :   -0.171617
  11 H :   -0.158841
  12 H :   -0.155727
  13 H :   -0.127989
  14 H :   -0.163167
  15 C :    0.110114
  16 C :    0.576664
  17 H :   -0.177415
  18 H :   -0.160949
  19 H :   -0.161803
  20 H :   -0.124941
  21 H :   -0.146674

  Mayer bond orders larger than 0.100000
B(  0-N ,  1-C ) :   0.9387 B(  0-N ,  8-C ) :   0.8116 B(  0-N , 15-C ) :   0.9879
B(  1-C ,  2-C ) :   0.9693 B(  1-C ,  6-H ) :   0.9812 B(  1-C ,  7-H ) :   0.9161
B(  2-C ,  3-H ) :   1.0148 B(  2-C ,  4-H ) :   0.9579 B(  2-C ,  5-H ) :   0.9724
B(  8-C ,  9-C ) :   0.9807 B(  8-C , 13-H ) :   0.9723 B(  8-C , 14-H ) :   0.9121
B(  8-C , 15-C ) :   0.1266 B(  9-C , 10-H ) :   0.9091 B(  9-C , 11-H ) :   1.1072
B(  9-C , 12-H ) :   0.9593 B( 15-C , 16-C ) :   1.0100 B( 15-C , 20-H ) :   0.9379
B( 15-C , 21-H ) :   0.8833 B( 16-C , 17-H ) :   0.9686 B( 16-C , 18-H ) :   0.9898
B( 16-C , 19-H ) :   1.0380

Dispersion correction           -0.021329495
FINAL SINGLE POINT ENERGY      -292.566044837057

DIPOLE MOMENT
-------------

Method             : SCF
Type of density    : Electron Density
Multiplicity       :   1
Irrep              :   0
Energy             :  -292.5447153421864641 Eh
Relativity type    :
Basis              : AO
                                X                 Y                 Z
Electronic contribution:      0.283026432       0.537434777       1.022347796
Nuclear contribution   :     -0.501506717      -0.494754897      -1.261304975
                        -----------------------------------------
Total Dipole Moment    :     -0.218480285       0.042679879      -0.238957179
                        -----------------------------------------
Magnitude (a.u.)       :      0.326581905
Magnitude (Debye)      :      0.830105233

Rotational constants in cm-1:             0.094674             0.067966             0.045296
Rotational constants in MHz :          2838.248460          2037.567031          1357.933108

                             ****ORCA TERMINATED NORMALLY****
TOTAL RUN TIME: 0 days 0 hours 4 minutes 41 seconds 892 msec
