                         Program Version 6.0.0  -   RELEASE  -
|  1> !B3LYP aug-cc-pVTZ d3 TightSCF SlowConv RIJCOSX defgrid2
|  2>
|  3> %pal
|  4> nprocs 4
|  5> end
|  6>
|  7> %scf
|  8> MaxIter 1500
|  9> end
| 10>
| 11> %maxcore 3000
| 12>
| 13> !CPCM
| 14> %cpcm smd true
| 15> SMDsolvent "MeCN"
| 16> surfacetype gepol_ses
| 17> rsolv 2.19
| 18> end
| 19>
| 20> * xyz 0 1
| 21> C          -0.01157783641881      1.20352898199244      0.00001890353025
| 22> C           1.37990540430455      1.22191450811359      0.00011854591947
| 23> C           2.06592899516975      0.01252414866139      0.00007181753194
| 24> C           1.39794249050432     -1.20933071970230     -0.00006681343243
| 25> C           0.01016197626576     -1.21076373795935     -0.00015906863819
| 26> C          -0.71228022521915     -0.00932565619212     -0.00012281102354
| 27> C          -2.20544538942687     -0.09111368239076     -0.00023883939795
| 28> O          -2.76237956084169     -1.16697560386648     -0.00031741607190
| 29> C          -2.99637020201978      1.19627311334720     -0.00027997588088
| 30> H          -2.76201741553525      1.80607989056811      0.88981335524989
| 31> H          -2.76168147330890      1.80627685436038     -0.89014621124470
| 32> H          -4.06823478710533      0.95066483560844     -0.00049545748797
| 33> H          -0.55378818786793     -2.14712022161097     -0.00026564570615
| 34> H           1.97664868381534     -2.13630478054762     -0.00010007290271
| 35> F           3.39392859180167      0.02324511926514      0.00015796253828
| 36> H           1.94353444532030      2.15785345098842      0.00023004641097
| 37> H          -0.54990740943796      2.15466559936447      0.00005528060562
| 38> *
| 39>
| 40>                          ****END OF INPUT****

CARTESIAN COORDINATES (ANGSTROEM)
---------------------------------
  C     -0.011578    1.203529    0.000019
  C      1.379905    1.221915    0.000119
  C      2.065929    0.012524    0.000072
  C      1.397942   -1.209331   -0.000067
  C      0.010162   -1.210764   -0.000159
  C     -0.712280   -0.009326   -0.000123
  C     -2.205445   -0.091114   -0.000239
  O     -2.762380   -1.166976   -0.000317
  C     -2.996370    1.196273   -0.000280
  H     -2.762017    1.806080    0.889813
  H     -2.761681    1.806277   -0.890146
  H     -4.068235    0.950665   -0.000495
  H     -0.553788   -2.147120   -0.000266
  H      1.976649   -2.136305   -0.000100
  F      3.393929    0.023245    0.000158
  H      1.943534    2.157853    0.000230
  H     -0.549907    2.154666    0.000055

 Total Charge           Charge          ....    0
 Multiplicity           Mult            ....    1
 Number of Electrons    NEL             ....   72
 Basis Dimension        Dim             ....  621

ORBITAL ENERGIES
----------------

  NO   OCC          E(Eh)            E(eV)
   0   2.0000     -24.711089      -672.4229
   1   2.0000     -19.117194      -520.2053
   2   2.0000     -10.271679      -279.5066
   3   2.0000     -10.264210      -279.3034
   4   2.0000     -10.194263      -277.4000
   5   2.0000     -10.190436      -277.2959
   6   2.0000     -10.188452      -277.2419
   7   2.0000     -10.187849      -277.2255
   8   2.0000     -10.187752      -277.2228
   9   2.0000     -10.166848      -276.6540
  10   2.0000      -1.249990       -34.0139
  11   2.0000      -1.048235       -28.5239
  12   2.0000      -0.871743       -23.7213
  13   2.0000      -0.775876       -21.1127
  14   2.0000      -0.762923       -20.7602
  15   2.0000      -0.726556       -19.7706
  16   2.0000      -0.639546       -17.4029
  17   2.0000      -0.628650       -17.1064
  18   2.0000      -0.558045       -15.1852
  19   2.0000      -0.554957       -15.1011
  20   2.0000      -0.506158       -13.7733
  21   2.0000      -0.488922       -13.3042
  22   2.0000      -0.484268       -13.1776
  23   2.0000      -0.451580       -12.2881
  24   2.0000      -0.440579       -11.9888
  25   2.0000      -0.435942       -11.8626
  26   2.0000      -0.433127       -11.7860
  27   2.0000      -0.409784       -11.1508
  28   2.0000      -0.405101       -11.0234
  29   2.0000      -0.377173       -10.2634
  30   2.0000      -0.375689       -10.2230
  31   2.0000      -0.355901        -9.6846
  32   2.0000      -0.348141        -9.4734
  33   2.0000      -0.270878        -7.3710
  34   2.0000      -0.258801        -7.0423
  35   2.0000      -0.258116        -7.0237
  36   0.0000      -0.060721        -1.6523
  37   0.0000      -0.025721        -0.6999
  38   0.0000      -0.003337        -0.0908
  39   0.0000       0.009844         0.2679
  40   0.0000       0.014403         0.3919

MULLIKEN ATOMIC CHARGES
-----------------------
   0 C :   -0.397351
   1 C :   -0.856379
   2 C :    0.722644
   3 C :   -0.708599
   4 C :   -0.821808
   5 C :    1.438336
   6 C :    0.636242
   7 O :   -0.912999
   8 C :   -0.589387
   9 H :    0.252449
  10 H :    0.252855
  11 H :    0.167399
  12 H :    0.248440
  13 H :    0.448249
  14 F :   -0.511955
  15 H :    0.446888
  16 H :    0.184976
Sum of atomic charges:    0.0000000

LOEWDIN ATOMIC CHARGES
----------------------
   0 C :    0.200330
   1 C :    0.205722
   2 C :   -0.547837
   3 C :    0.202736
   4 C :    0.185916
   5 C :   -0.134685
   6 C :   -0.552208
   7 O :    0.485861
   8 C :    0.561275
   9 H :   -0.154952
  10 H :   -0.154996
  11 H :   -0.175649
  12 H :   -0.181623
  13 H :   -0.163941
  14 F :    0.555176
  15 H :   -0.162845
  16 H :   -0.168280

  Mayer bond orders larger than 0.100000
B(  0-C ,  1-C ) :   0.9683 B(  0-C ,  2-C ) :  -0.2014 B(  0-C ,  3-C ) :  -0.1145
B(  0-C ,  4-C ) :  -0.2987 B(  0-C ,  5-C ) :   0.4788 B(  0-C ,  6-C ) :   0.1303
B(  0-C , 16-H ) :   1.1279 B(  1-C ,  2-C ) :   1.3569 B(  1-C ,  3-C ) :   0.2691
B(  1-C , 14-F ) :   0.2093 B(  1-C , 15-H ) :   0.5375 B(  2-C ,  3-C ) :   1.3405
B(  2-C ,  4-C ) :  -0.2644 B(  2-C , 14-F ) :   0.2348 B(  3-C ,  4-C ) :   1.3363
B(  3-C , 13-H ) :   0.5409 B(  3-C , 14-F ) :   0.2020 B(  4-C ,  5-C ) :   0.3752
B(  4-C ,  6-C ) :   0.2425 B(  4-C , 12-H ) :   0.9196 B(  4-C , 16-H ) :   0.1150
B(  5-C ,  6-C ) :   0.2525 B(  5-C ,  7-O ) :   0.1185 B(  5-C , 16-H ) :  -0.1304
B(  6-C ,  7-O ) :   0.8750 B(  6-C ,  8-C ) :   0.9327 B(  7-O , 12-H ) :   0.1246
B(  8-C ,  9-H ) :   0.9530 B(  8-C , 10-H ) :   0.9530 B(  8-C , 11-H ) :   0.9772
B( 12-H , 16-H ) :   0.1083 B( 13-H , 14-F ) :   0.1231 B( 14-F , 15-H ) :   0.1089

Dispersion correction           -0.030229453
FINAL SINGLE POINT ENERGY      -484.092705462922

DIPOLE MOMENT
-------------

Method             : SCF
Type of density    : Electron Density
Multiplicity       :   1
Irrep              :   0
Energy             :  -484.0624760098502293 Eh
Relativity type    :
Basis              : AO
                                X                 Y                 Z
Electronic contribution:      9.909356001      -2.934542608       0.000978818
Nuclear contribution   :     -9.565763920       4.278558097      -0.000557353
                        -----------------------------------------
Total Dipole Moment    :      0.343592080       1.344015490       0.000421464
                        -----------------------------------------
Magnitude (a.u.)       :      1.387239464
Magnitude (Debye)      :      3.526082496

Rotational constants in cm-1:             0.122785             0.025820             0.021420
Rotational constants in MHz :          3680.997761           774.054545           642.159761

                             ****ORCA TERMINATED NORMALLY****
TOTAL RUN TIME: 0 days 0 hours 5 minutes 5 seconds 258 msec
