                         Program Version 6.0.0  -   RELEASE  -
|  1> !r2SCANh opt aug-cc-pVTZ d3 TightSCF SlowConv RIJCOSX defgrid2
|  2>
|  3> %pal
|  4> nprocs 8
|  5> end
|  6>
|  7> %scf
|  8> MaxIter 1500
|  9> end
| 10>
| 11> %maxcore 3500
| 12>
| 13> !CPCM
| 14> %cpcm smd true
| 15> SMDsolvent "MeCN"
| 16> surfacetype gepol_ses
| 17> rsolv 2.19
| 18> end
| 19>
| 20> * xyz 0 1
| 21>   C           0.86854883905712     -1.20299952045828      0.00008992918930
| 22>   C           1.23391952412192      0.14869565589549      0.00018954538621
| 23>   C           0.20774097208029      1.10218127411109      0.00019805288012
| 24>   C          -1.14084727268388      0.75216110362260      0.00006959836456
| 25>   C          -1.49190324535276     -0.60923786190636     -0.00007128688741
| 26>   C          -0.47060173327016     -1.56400517971141     -0.00005419878875
| 27>   H          -0.73629826035774     -2.61575934003162      0.00019750376119
| 28>   C          -2.93282137789164     -1.03524225090155     -0.00022152688036
| 29>   H          -3.01761262312968     -2.12248558304407      0.00004075984467
| 30>   H          -3.46171653688882     -0.65310795364597     -0.87872183720639
| 31>   H          -3.46206161703017     -0.65273935165580      0.87787911643130
| 32>   C          -2.19928764888224      1.82026592812720      0.00004646023014
| 33>   H          -2.84579444762244      1.74164595096130      0.87929405552999
| 34>   H          -2.84778429383605      1.73937856316014     -0.87749918711877
| 35>   H          -1.74958388351305      2.81378056218161     -0.00182073940709
| 36>   H           0.47527994511518      2.15443982369113      0.00007696435884
| 37>   C           2.62571657262143      0.61108651259729      0.00035855728981
| 38>   C           3.72762432264113     -0.14624967190401     -0.00036325431535
| 39>   H           3.69494754104110     -1.23020582479664     -0.00129405966314
| 40>   H           4.71027196306098      0.30996412422180      0.00002712889521
| 41>   H           2.74299401288701      1.69198153599564      0.00092566900697
| 42>   H           1.62650074783247     -1.97700089650959      0.00017274909893
| 43> *
| 44>
| 45>                          ****END OF INPUT****
 Total Charge           Charge          ....    0
 Multiplicity           Mult            ....    1
 Number of Electrons    NEL             ....   72
Dispersion correction           -0.007361749
FINAL SINGLE POINT ENERGY      -388.182797157685
Dispersion correction             ... done (  0.0 sec)
Dispersion correction           -0.007375544
FINAL SINGLE POINT ENERGY      -388.182965544959
Dispersion correction             ... done (  0.1 sec)
Dispersion correction           -0.007377497
FINAL SINGLE POINT ENERGY      -388.182970453806
Dispersion correction             ... done (  0.1 sec)
                    ***********************HURRAY********************

CARTESIAN COORDINATES (ANGSTROEM)
---------------------------------
  C      0.867016   -1.198553    0.000167
  C      1.230880    0.149669    0.000281
  C      0.207296    1.100936    0.000295
  C     -1.138005    0.751071    0.000118
  C     -1.487685   -0.607453   -0.000068
  C     -0.468381   -1.559439   -0.000026
  H     -0.733045   -2.609851    0.000205
  C     -2.923150   -1.028253   -0.000366
  H     -3.013145   -2.112525    0.000394
  H     -3.450750   -0.644603   -0.876158
  H     -3.451542   -0.643348    0.874358
  C     -2.195585    1.810774    0.000123
  H     -2.841513    1.729186    0.876659
  H     -2.844173    1.726326   -0.874131
  H     -1.753357    2.804832   -0.002228
  H      0.474467    2.151719    0.000176
  C      2.619534    0.608842    0.000451
  C      3.716811   -0.147814   -0.000493
  H      3.681613   -1.229660   -0.001644
  H      4.697498    0.307719   -0.000083
  H      2.738542    1.688140    0.001222
  H      1.623905   -1.971167    0.000269

 Multiplicity           Mult            ....    1
 Number of Electrons    NEL             ....   72
 Basis Dimension        Dim             ....  736

ORBITAL ENERGIES
----------------

  NO   OCC          E(Eh)            E(eV)
   0   2.0000     -10.165230      -276.6100
   1   2.0000     -10.164730      -276.5964
   2   2.0000     -10.164231      -276.5828
   3   2.0000     -10.160983      -276.4944
   4   2.0000     -10.153543      -276.2919
   5   2.0000     -10.152932      -276.2753
   6   2.0000     -10.152529      -276.2644
   7   2.0000     -10.146198      -276.0921
   8   2.0000     -10.141849      -275.9737
   9   2.0000     -10.141711      -275.9700
  10   2.0000      -0.868408       -23.6306
  11   2.0000      -0.803836       -21.8735
  12   2.0000      -0.765186       -20.8218
  13   2.0000      -0.746433       -20.3115
  14   2.0000      -0.694706       -18.9039
  15   2.0000      -0.666112       -18.1258
  16   2.0000      -0.598366       -16.2824
  17   2.0000      -0.592093       -16.1117
  18   2.0000      -0.534545       -14.5457
  19   2.0000      -0.489540       -13.3211
  20   2.0000      -0.471542       -12.8313
  21   2.0000      -0.439705       -11.9650
  22   2.0000      -0.424308       -11.5460
  23   2.0000      -0.418949       -11.4002
  24   2.0000      -0.402882       -10.9630
  25   2.0000      -0.396006       -10.7759
  26   2.0000      -0.384001       -10.4492
  27   2.0000      -0.369893       -10.0653
  28   2.0000      -0.367656       -10.0044
  29   2.0000      -0.360930        -9.8214
  30   2.0000      -0.346687        -9.4338
  31   2.0000      -0.321965        -8.7611
  32   2.0000      -0.316579        -8.6145
  33   2.0000      -0.290401        -7.9022
  34   2.0000      -0.245089        -6.6692
  35   2.0000      -0.217257        -5.9119
  36   0.0000      -0.052355        -1.4246
  37   0.0000      -0.019684        -0.5356
  38   0.0000       0.009999         0.2721
  39   0.0000       0.020156         0.5485
  40   0.0000       0.023719         0.6454

MULLIKEN ATOMIC CHARGES
-----------------------
   0 C :   -0.269650
   1 C :    2.219220
   2 C :   -1.263650
   3 C :    0.816088
   4 C :    1.023034
   5 C :   -1.299513
   6 H :   -0.044219
   7 C :   -0.769987
   8 H :    0.086515
   9 H :    0.212073
  10 H :    0.210935
  11 C :   -0.769535
  12 H :    0.209066
  13 H :    0.207367
  14 H :    0.094055
  15 H :   -0.397170
  16 C :    0.083940
  17 C :   -0.997053
  18 H :    0.181341
  19 H :    0.303880
  20 H :    0.070323
  21 H :    0.092942
Sum of atomic charges:   -0.0000000

LOEWDIN ATOMIC CHARGES
----------------------
   0 C :    0.210357
   1 C :   -0.153353
   2 C :    0.225486
   3 C :   -0.103935
   4 C :   -0.108329
   5 C :    0.221981
   6 H :   -0.174514
   7 C :    0.589257
   8 H :   -0.173139
   9 H :   -0.160465
  10 H :   -0.160464
  11 C :    0.591248
  12 H :   -0.160224
  13 H :   -0.160448
  14 H :   -0.172707
  15 H :   -0.174064
  16 C :    0.166317
  17 C :    0.530415
  18 H :   -0.227678
  19 H :   -0.222479
  20 H :   -0.194951
  21 H :   -0.188311

  Mayer bond orders larger than 0.100000
B(  0-C ,  2-C ) :  -0.9251 B(  0-C ,  3-C ) :  -0.2429 B(  0-C ,  5-C ) :   0.5135
B(  0-C ,  6-H ) :  -0.1730 B(  0-C , 16-C ) :   0.2890 B(  0-C , 18-H ) :  -0.1395
B(  0-C , 21-H ) :   1.6292 B(  1-C ,  2-C ) :  -0.7059 B(  1-C ,  3-C ) :   0.5036
B(  1-C ,  4-C ) :  -0.3132 B(  1-C ,  7-C ) :   0.1085 B(  1-C , 15-H ) :  -0.5679
B(  1-C , 16-C ) :  -0.1217 B(  1-C , 21-H ) :  -0.1921 B(  2-C ,  3-C ) :   0.4977
B(  2-C ,  4-C ) :  -0.3436 B(  2-C ,  5-C ) :   0.2313 B(  2-C , 11-C ) :  -0.2296
B(  2-C , 15-H ) :   2.5040 B(  2-C , 16-C ) :   0.2038 B(  2-C , 17-C ) :   0.1195
B(  2-C , 20-H ) :  -0.1536 B(  3-C ,  4-C ) :   1.2165 B(  3-C ,  5-C ) :   0.2001
B(  3-C ,  7-C ) :   0.1580 B(  3-C , 11-C ) :  -0.1677 B(  3-C , 12-H ) :  -0.1205
B(  3-C , 13-H ) :  -0.1205 B(  3-C , 15-H ) :  -0.2613 B(  3-C , 20-H ) :   0.1317
B(  3-C , 21-H ) :  -0.2511 B(  4-C ,  5-C ) :   0.4789 B(  4-C ,  7-C ) :   0.1449
B(  4-C , 11-C ) :   0.4497 B(  4-C , 15-H ) :  -0.1118 B(  4-C , 16-C ) :   0.1282
B(  4-C , 21-H ) :  -0.1322 B(  5-C ,  6-H ) :   1.3915 B(  5-C ,  7-C ) :  -0.1737
B(  5-C , 17-C ) :  -0.1503 B(  5-C , 21-H ) :  -0.1691 B(  7-C ,  8-H ) :   1.0895
B(  7-C ,  9-H ) :   1.0219 B(  7-C , 10-H ) :   1.0218 B( 11-C , 12-H ) :   1.0310
B( 11-C , 13-H ) :   1.0326 B( 11-C , 14-H ) :   1.0655 B( 15-H , 16-C ) :  -0.2094
B( 15-H , 20-H ) :  -0.1085 B( 16-C , 17-C ) :   0.8081 B( 16-C , 18-H ) :  -0.1145
B( 16-C , 20-H ) :   1.1243 B( 17-C , 18-H ) :   1.2303 B( 17-C , 19-H ) :   0.8129
B( 17-C , 20-H ) :  -0.2058

Dispersion correction           -0.007377534
FINAL SINGLE POINT ENERGY      -388.182971507528

DIPOLE MOMENT
-------------

Method             : SCF
Type of density    : Electron Density
Multiplicity       :   1
Irrep              :   0
Energy             :  -388.1755939731987723 Eh
Relativity type    :
Basis              : AO
                                X                 Y                 Z
Electronic contribution:      3.958332307      -1.046436692       0.001430607
Nuclear contribution   :     -4.590678745       1.143012888      -0.001313272
                        -----------------------------------------
Total Dipole Moment    :     -0.632346437       0.096576196       0.000117335
                        -----------------------------------------
Magnitude (a.u.)       :      0.639678820
Magnitude (Debye)      :      1.625934345

Rotational constants in cm-1:             0.098234             0.028869             0.022496
Rotational constants in MHz :          2944.968908           865.479791           674.415760

                             ****ORCA TERMINATED NORMALLY****
TOTAL RUN TIME: 0 days 0 hours 20 minutes 51 seconds 488 msec
