                         Program Version 6.0.0  -   RELEASE  -
|  1> !B3LYP aug-cc-pVTZ d3 TightSCF SlowConv RIJCOSX defgrid2
|  2>
|  3> %pal
|  4> nprocs 4
|  5> end
|  6>
|  7> %scf
|  8> MaxIter 1500
|  9> end
| 10>
| 11> %maxcore 3000
| 12>
| 13> !CPCM
| 14> %cpcm smd true
| 15> SMDsolvent "MeCN"
| 16> surfacetype gepol_ses
| 17> rsolv 2.19
| 18> end
| 19>
| 20> * xyz -1 2
| 21> C           0.48430727092939     -1.21516905318477      0.00018212657990
| 22> C           1.86893489645764     -1.23471525883061      0.00003208773951
| 23> C           2.62346115159641     -0.04459960429403     -0.00011347347240
| 24> C           1.91719196899144      1.18166812135145     -0.00009858652004
| 25> C           0.53848704808454      1.21700668050313      0.00004693720302
| 26> C          -0.25134605739008      0.01820867284039      0.00018913172850
| 27> C          -1.68142459571573      0.11401828572460      0.00025810009938
| 28> O          -2.30904371905977      1.20375222206345     -0.00021388182496
| 29> C          -2.48201195396780     -1.18785928153366     -0.00008271887877
| 30> H          -3.55195535151616     -0.92055571828390     -0.00040503473791
| 31> H          -2.27639676371142     -1.81970454990542      0.88827366491426
| 32> H          -2.27584482297506     -1.81958543160251     -0.88839650427297
| 33> H          -0.00899519579743      2.16434489361400      0.00006122664782
| 34> H           2.47845175619435      2.12626372992034     -0.00020253099996
| 35> H           3.71827539321824     -0.06872896483531     -0.00023193512716
| 36> H           2.38810382970115     -2.20294221124226      0.00002680569261
| 37> H          -0.05769635503973     -2.16717953230489      0.00028068522919
| 38> *
| 39>
| 40>                          ****END OF INPUT****

CARTESIAN COORDINATES (ANGSTROEM)
---------------------------------
  C      0.484307   -1.215169    0.000182
  C      1.868935   -1.234715    0.000032
  C      2.623461   -0.044600   -0.000113
  C      1.917192    1.181668   -0.000099
  C      0.538487    1.217007    0.000047
  C     -0.251346    0.018209    0.000189
  C     -1.681425    0.114018    0.000258
  O     -2.309044    1.203752   -0.000214
  C     -2.482012   -1.187859   -0.000083
  H     -3.551955   -0.920556   -0.000405
  H     -2.276397   -1.819705    0.888274
  H     -2.275845   -1.819585   -0.888397
  H     -0.008995    2.164345    0.000061
  H      2.478452    2.126264   -0.000203
  H      3.718275   -0.068729   -0.000232
  H      2.388104   -2.202942    0.000027
  H     -0.057696   -2.167180    0.000281

 Total Charge           Charge          ....   -1
 Multiplicity           Mult            ....    2
 Number of Electrons    NEL             ....   65
 Basis Dimension        Dim             ....  598

ORBITAL ENERGIES
----------------
                 SPIN UP ORBITALS
  NO   OCC          E(Eh)            E(eV)
   0   1.0000     -19.048257      -518.3294
   1   1.0000     -10.186470      -277.1879
   2   1.0000     -10.152488      -276.2632
   3   1.0000     -10.152413      -276.2612
   4   1.0000     -10.147933      -276.1393
   5   1.0000     -10.143078      -276.0072
   6   1.0000     -10.142851      -276.0010
   7   1.0000     -10.141331      -275.9596
   8   1.0000     -10.140027      -275.9242
   9   1.0000      -0.965106       -26.2619
  10   1.0000      -0.822286       -22.3755
  11   1.0000      -0.734140       -19.9770
  12   1.0000      -0.718829       -19.5603
  13   1.0000      -0.685972       -18.6662
  14   1.0000      -0.600649       -16.3445
  15   1.0000      -0.567763       -15.4496
  16   1.0000      -0.516481       -14.0542
  17   1.0000      -0.473766       -12.8918
  18   1.0000      -0.427462       -11.6318
  19   1.0000      -0.420322       -11.4375
  20   1.0000      -0.408340       -11.1115
  21   1.0000      -0.403431       -10.9779
  22   1.0000      -0.391300       -10.6478
  23   1.0000      -0.365217        -9.9380
  24   1.0000      -0.353065        -9.6074
  25   1.0000      -0.349636        -9.5141
  26   1.0000      -0.328309        -8.9337
  27   1.0000      -0.316632        -8.6160
  28   1.0000      -0.302732        -8.2378
  29   1.0000      -0.242208        -6.5908
  30   1.0000      -0.234817        -6.3897
  31   1.0000      -0.208352        -5.6696
  32   1.0000      -0.092967        -2.5298
  33   0.0000      -0.000968        -0.0263
  34   0.0000       0.007485         0.2037
  35   0.0000       0.011918         0.3243
  36   0.0000       0.017111         0.4656
  37   0.0000       0.028009         0.7622

                 SPIN DOWN ORBITALS
  NO   OCC          E(Eh)            E(eV)
   0   1.0000     -19.042639      -518.1765
   1   1.0000     -10.182588      -277.0823
   2   1.0000     -10.153373      -276.2873
   3   1.0000     -10.153350      -276.2867
   4   1.0000     -10.145846      -276.0825
   5   1.0000     -10.141658      -275.9685
   6   1.0000     -10.140714      -275.9429
   7   1.0000     -10.139113      -275.8993
   8   1.0000     -10.138691      -275.8878
   9   1.0000      -0.954405       -25.9707
  10   1.0000      -0.818283       -22.2666
  11   1.0000      -0.727264       -19.7898
  12   1.0000      -0.715311       -19.4646
  13   1.0000      -0.683239       -18.5919
  14   1.0000      -0.591400       -16.0928
  15   1.0000      -0.566400       -15.4125
  16   1.0000      -0.512710       -13.9516
  17   1.0000      -0.469291       -12.7701
  18   1.0000      -0.425054       -11.5663
  19   1.0000      -0.416530       -11.3344
  20   1.0000      -0.407299       -11.0832
  21   1.0000      -0.393236       -10.7005
  22   1.0000      -0.390475       -10.6254
  23   1.0000      -0.360928        -9.8214
  24   1.0000      -0.351823        -9.5736
  25   1.0000      -0.339969        -9.2510
  26   1.0000      -0.325755        -8.8642
  27   1.0000      -0.301499        -8.2042
  28   1.0000      -0.293109        -7.9759
  29   1.0000      -0.232786        -6.3344
  30   1.0000      -0.212910        -5.7936
  31   1.0000      -0.203352        -5.5335
  32   0.0000      -0.023043        -0.6270
  33   0.0000      -0.001020        -0.0278
  34   0.0000       0.011352         0.3089
  35   0.0000       0.011749         0.3197
  36   0.0000       0.016790         0.4569

MULLIKEN ATOMIC CHARGES AND SPIN POPULATIONS
--------------------------------------------
   0 C :   -0.736270    0.193093
   1 C :   -0.720347   -0.071646
   2 C :   -0.350513    0.298161
   3 C :   -0.602888   -0.063433
   4 C :   -1.138988    0.189894
   5 C :    1.836818    0.093553
   6 C :    0.615110    0.207402
   7 O :   -1.061686    0.217006
   8 C :   -0.628128   -0.018170
   9 H :    0.137820   -0.000070
  10 H :    0.223992    0.011331
  11 H :    0.224805    0.011355
  12 H :   -0.017423   -0.020672
  13 H :    0.460627   -0.007882
  14 H :    0.403182   -0.016347
  15 H :    0.508562   -0.002151
  16 H :   -0.154673   -0.021424
Sum of atomic charges         :   -1.0000000

LOEWDIN ATOMIC CHARGES AND SPIN POPULATIONS
-------------------------------------------
   0 C :    0.140990    0.087549
   1 C :    0.118475    0.036278
   2 C :    0.127720    0.132773
   3 C :    0.116619    0.034851
   4 C :    0.126022    0.085992
   5 C :   -0.212513    0.122670
   6 C :   -0.674767    0.182797
   7 O :    0.335153    0.199395
   8 C :    0.486446    0.034701
   9 H :   -0.203017   -0.000715
  10 H :   -0.176975    0.008855
  11 H :   -0.177010    0.008864
  12 H :   -0.217066    0.018430
  13 H :   -0.189693   -0.002959
  14 H :   -0.207143    0.034949
  15 H :   -0.188058   -0.002540
  16 H :   -0.205183    0.018109

  Mayer bond orders larger than 0.100000
B(  0-C ,  1-C ) :   1.0087 B(  0-C ,  2-C ) :  -0.1652 B(  0-C ,  4-C ) :  -0.4031
B(  0-C ,  5-C ) :   0.1018 B(  0-C ,  6-C ) :   0.3202 B(  0-C , 12-H ) :   0.1646
B(  0-C , 15-H ) :  -0.1322 B(  0-C , 16-H ) :   1.8493 B(  1-C ,  2-C ) :   1.0647
B(  1-C ,  3-C ) :   0.1846 B(  1-C ,  5-C ) :   0.2210 B(  1-C , 12-H ) :  -0.1349
B(  1-C , 14-H ) :  -0.1211 B(  1-C , 15-H ) :   0.5447 B(  1-C , 16-H ) :  -0.1278
B(  2-C ,  3-C ) :   1.0300 B(  2-C ,  6-C ) :   0.1734 B(  2-C , 14-H ) :   0.7591
B(  3-C ,  4-C ) :   1.3192 B(  3-C , 12-H ) :  -0.1093 B(  3-C , 13-H ) :   0.6297
B(  3-C , 14-H ) :  -0.1138 B(  3-C , 16-H ) :  -0.1235 B(  4-C ,  6-C ) :   0.3131
B(  4-C ,  7-O ) :   0.1129 B(  4-C , 12-H ) :   1.4430 B(  4-C , 13-H ) :  -0.1674
B(  4-C , 14-H ) :   0.1486 B(  4-C , 16-H ) :   0.1772 B(  5-C ,  6-C ) :   0.3789
B(  5-C ,  7-O ) :   0.1440 B(  5-C , 12-H ) :  -0.1861 B(  5-C , 16-H ) :  -0.3418
B(  6-C ,  7-O ) :   0.5436 B(  6-C ,  8-C ) :   0.8937 B(  6-C , 12-H ) :  -0.1001
B(  6-C , 13-H ) :   0.1490 B(  6-C , 15-H ) :   0.1250 B(  6-C , 16-H ) :  -0.1348
B(  7-O , 12-H ) :   0.1534 B(  8-C ,  9-H ) :   1.0017 B(  8-C , 10-H ) :   0.9718
B(  8-C , 11-H ) :   0.9712 B( 12-H , 16-H ) :   0.1572

Dispersion correction           -0.029765849
FINAL SINGLE POINT ENERGY      -384.924398434344

DIPOLE MOMENT
-------------

Method             : SCF
Type of density    : Electron Density
Multiplicity       :   2
Irrep              :   0
Energy             :  -384.8946325851778170 Eh
Relativity type    :
Basis              : AO
                                X                 Y                 Z
Electronic contribution:      1.010373268       2.972009275       0.000856878
Nuclear contribution   :      0.371773726      -4.441970232      -0.000619392
                        -----------------------------------------
Total Dipole Moment    :      1.382146994      -1.469960957       0.000237486
                        -----------------------------------------
Magnitude (a.u.)       :      2.017700569
Magnitude (Debye)      :      5.128587270

Rotational constants in cm-1:             0.121326             0.040165             0.030348
Rotational constants in MHz :          3637.264281          1204.105692           909.812230

                             ****ORCA TERMINATED NORMALLY****
TOTAL RUN TIME: 0 days 0 hours 5 minutes 38 seconds 901 msec
