                         Program Version 6.0.0  -   RELEASE  -
|  1> !r2SCANh freq aug-cc-pVTZ d3 TightSCF SlowConv RIJCOSX defgrid2
|  2>
|  3> %pal
|  4> nprocs 12
|  5> end
|  6>
|  7> %scf
|  8> MaxIter 1500
|  9> end
| 10>
| 11> %maxcore 5000
| 12>
| 13> !CPCM
| 14> %cpcm smd true
| 15> SMDsolvent "MeCN"
| 16> surfacetype gepol_ses
| 17> rsolv 2.19
| 18> end
| 19>
| 20> * xyz 0 1
| 21> C          -0.72790287594428     -1.02198521005750      0.00094226335808
| 22> C          -1.30760004498594      0.24631189942500      0.00082138244197
| 23> C          -0.49278397204333      1.38168851551365      0.00027766276762
| 24> C           0.87827908877174      1.25237864487985     -0.00011894362321
| 25> C           1.47703242750346     -0.01677448098642      0.00005624901099
| 26> C           0.65190814278135     -1.14387878920642      0.00062031180620
| 27> H           1.09666079826519     -2.12937702339487      0.00032409857759
| 28> C           2.89021368936847     -0.15111017984660     -0.00084456147008
| 29> C           4.08951739443766     -0.26368884959337      0.00029828990679
| 30> H           5.14928772159407     -0.36221626810462     -0.00120278665066
| 31> H           1.50140822647140      2.13580881463803     -0.00078750240910
| 32> H          -0.95595239033452      2.35875109510836      0.00037803953713
| 33> O          -2.63626103380706      0.47318886404658      0.00118162970748
| 34> C          -3.50135639665887     -0.65789220383379     -0.00049714501065
| 35> H          -4.51054120070469     -0.25871242039507     -0.00106719188170
| 36> H          -3.34894613221234     -1.26536120154595     -0.89336669444606
| 37> H          -3.35078688235493     -1.26697436725319      0.89159565719840
| 38> H          -1.33641846014737     -1.91269803939367      0.00157144117922
| 39> *
| 40>
| 41>                          ****END OF INPUT****

CARTESIAN COORDINATES (ANGSTROEM)
---------------------------------
  C     -0.727903   -1.021985    0.000942
  C     -1.307600    0.246312    0.000821
  C     -0.492784    1.381689    0.000278
  C      0.878279    1.252379   -0.000119
  C      1.477032   -0.016774    0.000056
  C      0.651908   -1.143879    0.000620
  H      1.096661   -2.129377    0.000324
  C      2.890214   -0.151110   -0.000845
  C      4.089517   -0.263689    0.000298
  H      5.149288   -0.362216   -0.001203
  H      1.501408    2.135809   -0.000788
  H     -0.955952    2.358751    0.000378
  O     -2.636261    0.473189    0.001182
  C     -3.501356   -0.657892   -0.000497
  H     -4.510541   -0.258712   -0.001067
  H     -3.348946   -1.265361   -0.893367
  H     -3.350787   -1.266974    0.891596
  H     -1.336418   -1.912698    0.001571

 Total Charge           Charge          ....    0
 Multiplicity           Mult            ....    1
 Number of Electrons    NEL             ....   70
 Basis Dimension        Dim             ....  644

ORBITAL ENERGIES
----------------

  NO   OCC          E(Eh)            E(eV)
   0   2.0000     -19.156885      -521.2853
   1   2.0000     -10.227587      -278.3068
   2   2.0000     -10.196634      -277.4645
   3   2.0000     -10.184345      -277.1301
   4   2.0000     -10.170548      -276.7547
   5   2.0000     -10.169821      -276.7349
   6   2.0000     -10.167352      -276.6677
   7   2.0000     -10.161390      -276.5055
   8   2.0000     -10.160208      -276.4733
   9   2.0000     -10.153438      -276.2891
  10   2.0000      -1.080509       -29.4021
  11   2.0000      -0.872003       -23.7284
  12   2.0000      -0.790869       -21.5206
  13   2.0000      -0.760507       -20.6944
  14   2.0000      -0.738622       -20.0989
  15   2.0000      -0.696152       -18.9433
  16   2.0000      -0.619370       -16.8539
  17   2.0000      -0.605685       -16.4815
  18   2.0000      -0.547143       -14.8885
  19   2.0000      -0.522651       -14.2221
  20   2.0000      -0.489838       -13.3292
  21   2.0000      -0.484581       -13.1861
  22   2.0000      -0.461270       -12.5518
  23   2.0000      -0.440450       -11.9853
  24   2.0000      -0.419908       -11.4263
  25   2.0000      -0.407230       -11.0813
  26   2.0000      -0.388611       -10.5746
  27   2.0000      -0.383699       -10.4410
  28   2.0000      -0.356316        -9.6959
  29   2.0000      -0.341901        -9.3036
  30   2.0000      -0.320929        -8.7329
  31   2.0000      -0.288839        -7.8597
  32   2.0000      -0.280438        -7.6311
  33   2.0000      -0.263233        -7.1629
  34   2.0000      -0.216617        -5.8945
  35   0.0000      -0.042963        -1.1691
  36   0.0000      -0.030844        -0.8393
  37   0.0000       0.008985         0.2445
  38   0.0000       0.020639         0.5616
  39   0.0000       0.021628         0.5885

MULLIKEN ATOMIC CHARGES
-----------------------
   0 C :   -0.153669
   1 C :    1.400068
   2 C :   -0.882328
   3 C :   -1.200367
   4 C :    1.739453
   5 C :   -1.389800
   6 H :   -0.412076
   7 C :    1.181021
   8 C :   -0.788950
   9 H :    0.308858
  10 H :   -0.354500
  11 H :    0.587553
  12 O :   -0.715290
  13 C :   -0.689678
  14 H :    0.246509
  15 H :    0.282748
  16 H :    0.282338
  17 H :    0.558109
Sum of atomic charges:   -0.0000000

LOEWDIN ATOMIC CHARGES
----------------------
   0 C :    0.217830
   1 C :   -0.400053
   2 C :    0.212026
   3 C :    0.191502
   4 C :   -0.237150
   5 C :    0.197511
   6 H :   -0.167549
   7 C :   -0.029068
   8 C :    0.399228
   9 H :   -0.294956
  10 H :   -0.168836
  11 H :   -0.175213
  12 O :    0.600563
  13 C :    0.366892
  14 H :   -0.177206
  15 H :   -0.169579
  16 H :   -0.169536
  17 H :   -0.196406

  Mayer bond orders larger than 0.100000
B(  0-C ,  1-C ) :   0.9071 B(  0-C ,  2-C ) :   0.2266 B(  0-C ,  4-C ) :   0.8099
B(  0-C ,  5-C ) :   0.9052 B(  0-C ,  6-H ) :  -0.2657 B(  0-C ,  7-C ) :  -0.2235
B(  0-C ,  8-C ) :  -0.1561 B(  0-C , 10-H ) :  -0.1545 B(  0-C , 11-H ) :  -0.1311
B(  0-C , 13-C ) :  -0.1002 B(  0-C , 17-H ) :   0.2467 B(  1-C ,  2-C ) :   0.6233
B(  1-C ,  3-C ) :  -0.6410 B(  1-C ,  5-C ) :  -0.5708 B(  1-C ,  7-C ) :   0.2354
B(  1-C ,  8-C ) :   0.1310 B(  1-C , 10-H ) :  -0.1113 B(  1-C , 11-H ) :   0.2074
B(  1-C , 12-O ) :   0.2481 B(  1-C , 17-H ) :   0.2243 B(  2-C ,  3-C ) :   1.2830
B(  2-C ,  4-C ) :   0.5954 B(  2-C ,  7-C ) :  -0.1183 B(  2-C , 10-H ) :  -0.1005
B(  2-C , 11-H ) :   0.2122 B(  2-C , 12-O ) :   0.3190 B(  2-C , 17-H ) :  -0.1071
B(  3-C ,  5-C ) :  -0.7178 B(  3-C ,  6-H ) :   0.2786 B(  3-C ,  7-C ) :   0.5242
B(  3-C , 10-H ) :   2.3790 B(  4-C ,  6-H ) :  -0.3264 B(  4-C ,  7-C ) :  -0.2284
B(  4-C ,  8-C ) :   0.9467 B(  4-C ,  9-H ) :   0.1044 B(  4-C , 10-H ) :  -0.1580
B(  4-C , 12-O ) :   0.1372 B(  4-C , 17-H ) :  -0.1187 B(  5-C ,  6-H ) :   2.5645
B(  5-C ,  7-C ) :   0.4177 B(  5-C ,  8-C ) :  -0.2105 B(  5-C , 10-H ) :   0.2636
B(  5-C , 17-H ) :  -0.1004 B(  6-H ,  7-C ) :  -0.3213 B(  6-H ,  8-C ) :  -0.5072
B(  6-H , 10-H ) :   0.6118 B(  6-H , 11-H ) :  -0.1216 B(  6-H , 17-H ) :  -0.1357
B(  7-C ,  8-C ) :   2.1080 B(  7-C ,  9-H ) :  -0.2445 B(  7-C , 10-H ) :  -0.3821
B(  7-C , 17-H ) :   0.1213 B(  8-C ,  9-H ) :   1.2198 B(  8-C , 10-H ) :  -0.5203
B(  8-C , 11-H ) :   0.2192 B(  8-C , 17-H ) :   0.2807 B( 10-H , 11-H ) :  -0.1233
B( 10-H , 17-H ) :  -0.1072 B( 12-O , 13-C ) :   1.0055 B( 13-C , 14-H ) :   0.9919
B( 13-C , 15-H ) :   0.9028 B( 13-C , 16-H ) :   0.9031

Dispersion correction           -0.005748727
FINAL SINGLE POINT ENERGY      -422.824876453462

DIPOLE MOMENT
-------------

Method             : SCF
Type of density    : Electron Density
Multiplicity       :   1
Irrep              :   0
Energy             :  -422.8191277260403353 Eh
Relativity type    :
Basis              : AO
                                X                 Y                 Z
Electronic contribution:      4.326030710       1.944690524       0.003091860
Nuclear contribution   :     -5.412992254      -2.546419380      -0.004371781
                        -----------------------------------------
Total Dipole Moment    :     -1.086961545      -0.601728856      -0.001279921
                        -----------------------------------------
Magnitude (a.u.)       :      1.242402774
Magnitude (Debye)      :      3.157936887

VIBRATIONAL FREQUENCIES
-----------------------

Scaling factor for frequencies =  1.000000000  (already applied!)

     0:       0.00 cm**-1
     1:       0.00 cm**-1
     2:       0.00 cm**-1
     3:       0.00 cm**-1
     4:       0.00 cm**-1
     5:       0.00 cm**-1
     6:      68.98 cm**-1
     7:     123.86 cm**-1
     8:     128.28 cm**-1
     9:     221.30 cm**-1
    10:     261.58 cm**-1
    11:     278.33 cm**-1
    12:     391.64 cm**-1
    13:     421.51 cm**-1
    14:     468.30 cm**-1
    15:     502.83 cm**-1
    16:     547.75 cm**-1
    17:     550.53 cm**-1
    18:     595.79 cm**-1
    19:     655.28 cm**-1
    20:     678.49 cm**-1
    21:     708.03 cm**-1
    22:     753.90 cm**-1
    23:     825.87 cm**-1
    24:     839.96 cm**-1
    25:     853.54 cm**-1
    26:     966.30 cm**-1
    27:     985.48 cm**-1
    28:    1027.89 cm**-1
    29:    1053.50 cm**-1
    30:    1130.95 cm**-1
    31:    1173.27 cm**-1
    32:    1187.85 cm**-1
    33:    1210.56 cm**-1
    34:    1236.31 cm**-1
    35:    1292.38 cm**-1
    36:    1328.56 cm**-1
    37:    1357.35 cm**-1
    38:    1456.28 cm**-1
    39:    1473.73 cm**-1
    40:    1481.97 cm**-1
    41:    1490.87 cm**-1
    42:    1542.35 cm**-1
    43:    1611.61 cm**-1
    44:    1655.02 cm**-1
    45:    2198.42 cm**-1
    46:    3040.34 cm**-1
    47:    3114.95 cm**-1
    48:    3170.27 cm**-1
    49:    3199.09 cm**-1
    50:    3203.60 cm**-1
    51:    3214.34 cm**-1
    52:    3233.98 cm**-1
    53:    3454.68 cm**-1

IR SPECTRUM
-----------

 Mode   freq       eps      Int      T**2         TX        TY        TZ
       cm**-1   L/(mol*cm) km/mol    a.u.
----------------------------------------------------------------------------
  6:     68.98   0.000536    2.71  0.002424  (-0.000185 -0.000615  0.049229)
  7:    123.86   0.000350    1.77  0.000882  ( 0.001086 -0.003400 -0.029482)
  8:    128.28   0.000501    2.53  0.001218  (-0.007522  0.033937 -0.003068)
  9:    221.30   0.000552    2.79  0.000778  (-0.000676 -0.000027  0.027881)
 10:    261.58   0.000543    2.74  0.000648  ( 0.025323  0.000449  0.002479)
 11:    278.33   0.001771    8.95  0.001986  ( 0.000668 -0.000057 -0.044558)
 12:    391.64   0.000446    2.25  0.000355  ( 0.017703 -0.006484  0.000019)
 13:    421.51   0.000002    0.01  0.000002  ( 0.000145 -0.000100  0.001248)
 14:    468.30   0.002341   11.83  0.001560  ( 0.000129 -0.000025  0.039500)
 15:    502.83   0.002891   14.61  0.001794  (-0.033995  0.025267 -0.000208)
 16:    547.75   0.001446    7.31  0.000824  ( 0.014635  0.024568 -0.002505)
 17:    550.53   0.006745   34.08  0.003823  (-0.000336 -0.000834 -0.061825)
 18:    595.79   0.016527   83.52  0.008657  ( 0.000236 -0.002376  0.093011)
 19:    655.28   0.002710   13.69  0.001290  (-0.002715 -0.035813 -0.000722)
 20:    678.49   0.014206   71.79  0.006534  ( 0.009004  0.080298  0.002237)
 21:    708.03   0.007440   37.60  0.003279  (-0.055074  0.015683  0.000072)
 22:    753.90   0.000060    0.30  0.000025  ( 0.000075  0.000100  0.004992)
 23:    825.87   0.001499    7.57  0.000566  ( 0.000099  0.000062 -0.023797)
 24:    839.96   0.000792    4.00  0.000294  (-0.012949  0.011245  0.000061)
 25:    853.54   0.025669  129.72  0.009385  (-0.000037  0.000134  0.096876)
 26:    966.30   0.000151    0.76  0.000049  (-0.000125 -0.000185 -0.006984)
 27:    985.48   0.000002    0.01  0.000001  (-0.000023  0.000455 -0.000616)
 28:   1027.89   0.000070    0.35  0.000021  (-0.004597 -0.000091  0.000196)
 29:   1053.50   0.025423  128.48  0.007531  ( 0.069384  0.052121  0.000035)
 30:   1130.95   0.005081   25.67  0.001402  (-0.007210  0.036741  0.000022)
 31:   1173.27   0.000186    0.94  0.000049  (-0.001075  0.000302 -0.006937)
 32:   1187.85   0.018891   95.47  0.004963  ( 0.070121  0.006791 -0.000085)
 33:   1210.56   0.002446   12.36  0.000630  ( 0.022760  0.010603 -0.000037)
 34:   1236.31   0.000024    0.12  0.000006  ( 0.001517  0.001956  0.000018)
 35:   1292.38   0.104880  530.02  0.025325  (-0.158566 -0.013481 -0.000074)
 36:   1328.56   0.000507    2.56  0.000119  (-0.005138 -0.009624 -0.000015)
 37:   1357.35   0.010202   51.56  0.002346  ( 0.047911  0.007083  0.000043)
 38:   1456.28   0.002948   14.90  0.000632  ( 0.025127  0.000520  0.000014)
 39:   1473.73   0.006779   34.26  0.001435  ( 0.036281 -0.010899  0.000519)
 40:   1481.97   0.003153   15.93  0.000664  (-0.003487  0.000501  0.025525)
 41:   1490.87   0.005742   29.02  0.001202  (-0.034323  0.004523 -0.001827)
 42:   1542.35   0.051976  262.66  0.010516  ( 0.102525  0.002222 -0.000031)
 43:   1611.61   0.005887   29.75  0.001140  (-0.026235  0.021252  0.000008)
 44:   1655.02   0.044322  223.99  0.008357  ( 0.091380  0.002634 -0.000016)
 45:   2198.42   0.023734  119.94  0.003369  ( 0.057935 -0.003541 -0.000013)
 46:   3040.34   0.015682   79.25  0.001610  (-0.031145 -0.025290 -0.000261)
 47:   3114.95   0.008989   45.42  0.000900  ( 0.000101  0.000160  0.030008)
 48:   3170.27   0.004855   24.53  0.000478  (-0.019503  0.009874 -0.000020)
 49:   3199.09   0.001670    8.44  0.000163  (-0.012732 -0.000910 -0.000067)
 50:   3203.60   0.001542    7.79  0.000150  (-0.006075  0.010642 -0.000078)
 51:   3214.34   0.001587    8.02  0.000154  (-0.002063  0.012241 -0.000030)
 52:   3233.98   0.000756    3.82  0.000073  (-0.007262 -0.004499  0.000041)
 53:   3454.68   0.046701  236.01  0.004218  ( 0.064736 -0.005264 -0.000096)

--------------------------
THERMOCHEMISTRY AT 298.15K
--------------------------

Temperature         ...   298.15 K
Pressure            ...     1.00 atm
Total Mass          ...   132.16 AMU
Quasi RRHO          ...     True
Cut-Off Frequency   ...     1.00 cm^-1

Throughout the following assumptions are being made:
  (1) The electronic state is orbitally nondegenerate
  (2) There are no thermally accessible electronically excited states
  (3) Hindered rotations indicated by low frequency modes are not
      treated as such but are treated as vibrations and this may
      cause some error
  (4) All equations used are the standard statistical mechanics
      equations for an ideal gas
  (5) All vibrations are strictly harmonic

freq.      68.98  E(vib)   ...       0.50
freq.     123.86  E(vib)   ...       0.43
freq.     128.28  E(vib)   ...       0.43
freq.     221.30  E(vib)   ...       0.33
freq.     261.58  E(vib)   ...       0.30
freq.     278.33  E(vib)   ...       0.28
freq.     391.64  E(vib)   ...       0.20
freq.     421.51  E(vib)   ...       0.18
freq.     468.30  E(vib)   ...       0.16
freq.     502.83  E(vib)   ...       0.14
freq.     547.75  E(vib)   ...       0.12
freq.     550.53  E(vib)   ...       0.12
freq.     595.79  E(vib)   ...       0.10
freq.     655.28  E(vib)   ...       0.08
freq.     678.49  E(vib)   ...       0.08
freq.     708.03  E(vib)   ...       0.07
freq.     753.90  E(vib)   ...       0.06
freq.     825.87  E(vib)   ...       0.04
freq.     839.96  E(vib)   ...       0.04
freq.     853.54  E(vib)   ...       0.04
freq.     966.30  E(vib)   ...       0.03
freq.     985.48  E(vib)   ...       0.02
freq.    1027.89  E(vib)   ...       0.02
freq.    1053.50  E(vib)   ...       0.02
freq.    1130.95  E(vib)   ...       0.01
freq.    1173.27  E(vib)   ...       0.01
freq.    1187.85  E(vib)   ...       0.01
freq.    1210.56  E(vib)   ...       0.01
freq.    1236.31  E(vib)   ...       0.01
freq.    1292.38  E(vib)   ...       0.01
freq.    1328.56  E(vib)   ...       0.01
freq.    1357.35  E(vib)   ...       0.01
freq.    1456.28  E(vib)   ...       0.00
freq.    1473.73  E(vib)   ...       0.00
freq.    1481.97  E(vib)   ...       0.00
freq.    1490.87  E(vib)   ...       0.00
freq.    1542.35  E(vib)   ...       0.00
freq.    1611.61  E(vib)   ...       0.00
freq.    1655.02  E(vib)   ...       0.00
freq.    2198.42  E(vib)   ...       0.00
freq.    3040.34  E(vib)   ...       0.00
freq.    3114.95  E(vib)   ...       0.00
freq.    3170.27  E(vib)   ...       0.00
freq.    3199.09  E(vib)   ...       0.00
freq.    3203.60  E(vib)   ...       0.00
freq.    3214.34  E(vib)   ...       0.00
freq.    3233.98  E(vib)   ...       0.00
freq.    3454.68  E(vib)   ...       0.00

------------
INNER ENERGY
------------

The inner energy is: U= E(el) + E(ZPE) + E(vib) + E(rot) + E(trans)
    E(el)   - is the total energy from the electronic structure calculation
              = E(kin-el) + E(nuc-el) + E(el-el) + E(nuc-nuc)
    E(ZPE)  - the the zero temperature vibrational energy from the frequency calculation
    E(vib)  - the the finite temperature correction to E(ZPE) due to population
              of excited vibrational states
    E(rot)  - is the rotational thermal energy
    E(trans)- is the translational thermal energy

Summary of contributions to the inner energy U:
Electronic energy                ...   -422.82487645 Eh
Zero point energy                ...      0.14208398 Eh      89.16 kcal/mol
Thermal vibrational correction   ...      0.00618834 Eh       3.88 kcal/mol
Thermal rotational correction    ...      0.00141627 Eh       0.89 kcal/mol
Thermal translational correction ...      0.00141627 Eh       0.89 kcal/mol
-----------------------------------------------------------------------
Total thermal energy                   -422.67377159 Eh

Summary of corrections to the electronic energy:
(perhaps to be used in another calculation)
Total thermal correction                  0.00902088 Eh       5.66 kcal/mol
Non-thermal (ZPE) correction              0.14208398 Eh      89.16 kcal/mol
-----------------------------------------------------------------------
Total correction                          0.15110486 Eh      94.82 kcal/mol

--------
ENTHALPY
--------

The enthalpy is H = U + kB*T
                kB is Boltzmann's constant
Total thermal energy              ...   -422.67377159 Eh
Thermal Enthalpy correction       ...      0.00094421 Eh       0.59 kcal/mol
-----------------------------------------------------------------------
Total Enthalpy                    ...   -422.67282738 Eh

Note: Only C1 symmetry has been detected, increase convergence thresholds
      if your molecule has a higher symmetry. Symmetry factor of 1.0 is
      used for the rotational entropy correction.

Note: Rotational entropy computed according to Herzberg
Infrared and Raman Spectra, Chapter V,1, Van Nostrand Reinhold, 1945
Point Group:  C1, Symmetry Number:   1
Rotational constants in cm-1:     0.161856     0.023820     0.020847

Vibrational entropy computed according to the QRRHO of S. Grimme
Chem.Eur.J. 2012 18 9955 using a reference frequency of 100.0 cm-1

-------
ENTROPY
-------

The entropy contributions are T*S = T*(S(el)+S(vib)+S(rot)+S(trans))
     S(el)   - electronic entropy
     S(vib)  - vibrational entropy
     S(rot)  - rotational entropy
     S(trans)- translational entropy
The entropies will be listed as multiplied by the temperature to get
units of energy

Electronic entropy                ...      0.00000000 Eh      0.00 kcal/mol
Vibrational entropy               ...      0.01030798 Eh      6.47 kcal/mol
Rotational entropy                ...      0.01396207 Eh      8.76 kcal/mol
Translational entropy             ...      0.01926618 Eh     12.09 kcal/mol
-----------------------------------------------------------------------
Final entropy term                ...      0.04353623 Eh     27.32 kcal/mol

In case the symmetry of your molecule has not been determined correctly
or in case you have a reason to use a different symmetry number we print
out the resulting rotational entropy values for sn=1,12:

 non-linear molecules -----------------------------------
|  sn= 1 | S(rot)=       0.01396207 Eh      8.76 kcal/mol|
|  sn= 2 | S(rot)=       0.01330761 Eh      8.35 kcal/mol|
|  sn= 3 | S(rot)=       0.01292478 Eh      8.11 kcal/mol|
|  sn= 4 | S(rot)=       0.01265316 Eh      7.94 kcal/mol|
|  sn= 5 | S(rot)=       0.01244247 Eh      7.81 kcal/mol|
|  sn= 6 | S(rot)=       0.01227033 Eh      7.70 kcal/mol|
|  sn= 7 | S(rot)=       0.01212478 Eh      7.61 kcal/mol|
|  sn= 8 | S(rot)=       0.01199870 Eh      7.53 kcal/mol|
|  sn= 9 | S(rot)=       0.01188749 Eh      7.46 kcal/mol|
|  sn=10 | S(rot)=       0.01178801 Eh      7.40 kcal/mol|
|  sn=11 | S(rot)=       0.01169802 Eh      7.34 kcal/mol|
|  sn=12 | S(rot)=       0.01161587 Eh      7.29 kcal/mol|

                             ****ORCA TERMINATED NORMALLY****
TOTAL RUN TIME: 0 days 0 hours 37 minutes 56 seconds 402 msec
