                         Program Version 6.0.0  -   RELEASE  -
|  1> !PBE0 def2-SV(p) Opt Freq d3 TightSCF SlowConv RIJCOSX defgrid2
|  2>
|  3> %pal
|  4> nprocs 15
|  5> end
|  6>
|  7> %scf
|  8> MaxIter 1500
|  9> end
| 10>
| 11> %maxcore 3500
| 12>
| 13>
| 14>
| 15> * xyz 1 1
| 16> O        1.892148000      3.698010000      1.453118000
| 17> N        2.679299000      2.707472000      1.243603000
| 18> C        3.790696000      2.928351000      0.306337000
| 19> C        4.407191000      1.603078000     -0.074600000
| 20> C        4.673841000      0.680853000      1.061864000
| 21> C        3.381122000      0.396215000      1.757075000
| 22> C        2.704898000      1.678223000      2.337211000
| 23> C        4.793300000      3.830082000      0.961074000
| 24> C        3.182734000      3.627420000     -0.941233000
| 25> C        3.472850000      2.208787000      3.551450000
| 26> C        1.288453000      1.395862000      2.733227000
| 27> H        4.976756000      1.817126000     -0.895203000
| 28> H        3.824828000      1.202309000     -0.926948000
| 29> H        3.662704000     -0.118409000      2.827668000
| 30> H        2.468112000     -0.323348000      1.756281000
| 31> H        4.230136000      4.611128000      1.320584000
| 32> H        6.000692000      3.631975000      1.130115000
| 33> H        5.514322000      4.219466000      0.035713000
| 34> H        2.576906000      4.387972000     -0.761082000
| 35> H        2.235594000      2.907857000     -1.086466000
| 36> H        4.112810000      3.727613000     -1.578510000
| 37> H        2.815824000      3.199326000      3.745886000
| 38> H        4.330396000      2.356799000      2.674499000
| 39> H        3.199800000      1.286562000      4.341101000
| 40> H        0.486370000      2.236112000      3.064167000
| 41> H        0.678358000      1.029249000      1.818183000
| 42> H        1.104998000      0.710455000      3.492722000
| 43> O        5.961123826      0.151143320      1.430524525
| 44> *
| 45>
| 46>                          ****END OF INPUT****
 Total Charge           Charge          ....    1
 Multiplicity           Mult            ....    1
 Number of Electrons    NEL             ....   92
Dispersion correction           -0.028554065
FINAL SINGLE POINT ENERGY      -556.021854967666
Dispersion correction             ... done (  0.1 sec)
Dispersion correction           -0.028470536
FINAL SINGLE POINT ENERGY      -556.130637430829
Dispersion correction             ... done (  0.1 sec)
Dispersion correction           -0.028467953
FINAL SINGLE POINT ENERGY      -556.215212821963
Dispersion correction             ... done (  0.1 sec)
FINAL SINGLE POINT ENERGY      -556.296317963537
FINAL SINGLE POINT ENERGY      -556.360322071465
FINAL SINGLE POINT ENERGY      -556.392357996925
FINAL SINGLE POINT ENERGY      -556.404335897941
FINAL SINGLE POINT ENERGY      -556.407651833560
FINAL SINGLE POINT ENERGY      -556.409031059300
FINAL SINGLE POINT ENERGY      -556.409662115335
FINAL SINGLE POINT ENERGY      -556.409803924090
FINAL SINGLE POINT ENERGY      -556.409899886432
FINAL SINGLE POINT ENERGY      -556.409955160702
FINAL SINGLE POINT ENERGY      -556.409982560975
FINAL SINGLE POINT ENERGY      -556.409995856343
Dispersion correction             ... done (  0.1 sec)
Dispersion correction           -0.028563678
FINAL SINGLE POINT ENERGY      -556.410001261600
Dispersion correction             ... done (  0.1 sec)
Dispersion correction           -0.028564205
FINAL SINGLE POINT ENERGY      -556.410003111795
Dispersion correction             ... done (  0.1 sec)
                    ***********************HURRAY********************

CARTESIAN COORDINATES (ANGSTROEM)
---------------------------------
  O      1.674181    3.379419    1.154345
  N      2.620643    2.683535    1.218211
  C      3.739930    2.910541    0.209708
  C      4.361304    1.556154   -0.164931
  C      4.626940    0.699013    1.053642
  C      3.363042    0.382805    1.823473
  C      2.672477    1.654413    2.340062
  C      4.771447    3.822292    0.902544
  C      3.134661    3.611146   -0.996762
  C      3.479115    2.300374    3.483676
  C      1.242671    1.384667    2.782236
  H      5.304358    1.749059   -0.698485
  H      3.682297    1.014844   -0.848504
  H      3.603053   -0.252383    2.689615
  H      2.668207   -0.173926    1.168787
  H      4.292716    4.708610    1.349237
  H      5.372530    3.297292    1.658303
  H      5.457745    4.168259    0.112240
  H      2.786957    4.627365   -0.756662
  H      2.296259    3.035248   -1.422723
  H      3.920879    3.688825   -1.764685
  H      3.107316    3.310446    3.719677
  H      4.559011    2.332494    3.282331
  H      3.322676    1.664772    4.370749
  H      0.780003    2.264112    3.255367
  H      0.611139    1.055179    1.940354
  H      1.274256    0.571147    3.524462
  O      5.720448    0.341986    1.392097

 Multiplicity           Mult            ....    1
 Number of Electrons    NEL             ....   92
 Basis Dimension        Dim             ....  200

ORBITAL ENERGIES
----------------

  NO   OCC          E(Eh)            E(eV)
   0   2.0000     -19.517685      -531.1032
   1   2.0000     -19.362905      -526.8914
   2   2.0000     -14.799961      -402.7274
   3   2.0000     -10.496047      -285.6120
   4   2.0000     -10.495980      -285.6101
   5   2.0000     -10.483975      -285.2835
   6   2.0000     -10.411772      -283.3187
   7   2.0000     -10.411736      -283.3177
   8   2.0000     -10.406824      -283.1841
   9   2.0000     -10.406745      -283.1819
  10   2.0000     -10.394235      -282.8415
  11   2.0000     -10.394218      -282.8410
  12   2.0000      -1.466480       -39.9050
  13   2.0000      -1.227125       -33.3918
  14   2.0000      -1.110508       -30.2185
  15   2.0000      -1.047596       -28.5065
  16   2.0000      -0.956068       -26.0159
  17   2.0000      -0.931112       -25.3369
  18   2.0000      -0.893581       -24.3156
  19   2.0000      -0.893274       -24.3072
  20   2.0000      -0.882162       -24.0049
  21   2.0000      -0.837360       -22.7857
  22   2.0000      -0.779172       -21.2023
  23   2.0000      -0.755250       -20.5514
  24   2.0000      -0.739114       -20.1123
  25   2.0000      -0.711280       -19.3549
  26   2.0000      -0.683867       -18.6090
  27   2.0000      -0.660128       -17.9630
  28   2.0000      -0.655542       -17.8382
  29   2.0000      -0.629579       -17.1317
  30   2.0000      -0.629013       -17.1163
  31   2.0000      -0.608306       -16.5528
  32   2.0000      -0.599320       -16.3083
  33   2.0000      -0.597414       -16.2564
  34   2.0000      -0.581884       -15.8339
  35   2.0000      -0.577585       -15.7169
  36   2.0000      -0.573400       -15.6030
  37   2.0000      -0.564803       -15.3691
  38   2.0000      -0.558682       -15.2025
  39   2.0000      -0.555622       -15.1192
  40   2.0000      -0.544373       -14.8131
  41   2.0000      -0.540748       -14.7145
  42   2.0000      -0.534135       -14.5345
  43   2.0000      -0.525867       -14.3096
  44   2.0000      -0.509719       -13.8702
  45   2.0000      -0.420531       -11.4432
  46   0.0000      -0.325905        -8.8683
  47   0.0000      -0.179315        -4.8794
  48   0.0000      -0.100769        -2.7421
  49   0.0000      -0.086088        -2.3426
  50   0.0000      -0.066063        -1.7977

MULLIKEN ATOMIC CHARGES
-----------------------
   0 O :   -0.021866
   1 N :    0.116893
   2 C :   -0.336391
   3 C :   -0.112804
   4 C :    0.051372
   5 C :   -0.113071
   6 C :   -0.336611
   7 C :   -0.271516
   8 C :   -0.250510
   9 C :   -0.271740
  10 C :   -0.250598
  11 H :    0.182773
  12 H :    0.175801
  13 H :    0.183064
  14 H :    0.175782
  15 H :    0.176761
  16 H :    0.193081
  17 H :    0.198400
  18 H :    0.183222
  19 H :    0.169273
  20 H :    0.187421
  21 H :    0.176659
  22 H :    0.193412
  23 H :    0.198632
  24 H :    0.183222
  25 H :    0.169300
  26 H :    0.187487
  27 O :   -0.137451
Sum of atomic charges:    1.0000000

LOEWDIN ATOMIC CHARGES
----------------------
   0 O :    0.057963
   1 N :    0.299675
   2 C :   -0.045460
   3 C :   -0.229559
   4 C :    0.051875
   5 C :   -0.229609
   6 C :   -0.045533
   7 C :   -0.312592
   8 C :   -0.327719
   9 C :   -0.312532
  10 C :   -0.327771
  11 H :    0.169843
  12 H :    0.159590
  13 H :    0.169915
  14 H :    0.159554
  15 H :    0.148409
  16 H :    0.146055
  17 H :    0.168793
  18 H :    0.150912
  19 H :    0.145217
  20 H :    0.162044
  21 H :    0.148360
  22 H :    0.146052
  23 H :    0.168837
  24 H :    0.150924
  25 H :    0.145274
  26 H :    0.162069
  27 O :   -0.080584

  Mayer bond orders larger than 0.100000
B(  0-O ,  1-N ) :   1.8509 B(  1-N ,  2-C ) :   0.7409 B(  1-N ,  6-C ) :   0.7412
B(  2-C ,  3-C ) :   0.9950 B(  2-C ,  7-C ) :   1.0196 B(  2-C ,  8-C ) :   1.0850
B(  3-C ,  4-C ) :   0.9823 B(  3-C , 11-H ) :   0.8874 B(  3-C , 12-H ) :   0.8939
B(  4-C ,  5-C ) :   0.9820 B(  4-C , 27-O ) :   2.2098 B(  5-C ,  6-C ) :   0.9954
B(  5-C , 13-H ) :   0.8874 B(  5-C , 14-H ) :   0.8939 B(  6-C ,  9-C ) :   1.0191
B(  6-C , 10-C ) :   1.0853 B(  7-C , 15-H ) :   0.9260 B(  7-C , 16-H ) :   0.9161
B(  7-C , 17-H ) :   0.9184 B(  8-C , 18-H ) :   0.9221 B(  8-C , 19-H ) :   0.9276
B(  8-C , 20-H ) :   0.9205 B(  9-C , 21-H ) :   0.9260 B(  9-C , 22-H ) :   0.9159
B(  9-C , 23-H ) :   0.9185 B( 10-C , 24-H ) :   0.9221 B( 10-C , 25-H ) :   0.9276
B( 10-C , 26-H ) :   0.9203

Dispersion correction           -0.028564061
FINAL SINGLE POINT ENERGY      -556.410003587389

DIPOLE MOMENT
-------------

Method             : SCF
Type of density    : Electron Density
Multiplicity       :   1
Irrep              :   0
Energy             :  -556.3814395260667425 Eh
Relativity type    :
Basis              : AO
                                X                 Y                 Z
Electronic contribution:      0.861629585      -2.829510046      -1.227839925
Nuclear contribution   :     -1.867094982       3.503684408       1.120844434
                        -----------------------------------------
Total Dipole Moment    :     -1.005465396       0.674174361      -0.106995491
                        -----------------------------------------
Magnitude (a.u.)       :      1.215285879
Magnitude (Debye)      :      3.089011217

VIBRATIONAL FREQUENCIES
-----------------------

Scaling factor for frequencies =  1.000000000  (already applied!)

     0:       0.00 cm**-1
     1:       0.00 cm**-1
     2:       0.00 cm**-1
     3:       0.00 cm**-1
     4:       0.00 cm**-1
     5:       0.00 cm**-1
     6:      63.97 cm**-1
     7:      66.97 cm**-1
     8:      91.34 cm**-1
     9:     201.43 cm**-1
    10:     221.58 cm**-1
    11:     252.95 cm**-1
    12:     268.14 cm**-1
    13:     282.30 cm**-1
    14:     291.25 cm**-1
    15:     293.63 cm**-1
    16:     326.35 cm**-1
    17:     337.95 cm**-1
    18:     341.25 cm**-1
    19:     361.98 cm**-1
    20:     417.12 cm**-1
    21:     417.95 cm**-1
    22:     448.19 cm**-1
    23:     501.65 cm**-1
    24:     514.92 cm**-1
    25:     586.62 cm**-1
    26:     587.31 cm**-1
    27:     712.32 cm**-1
    28:     759.97 cm**-1
    29:     808.55 cm**-1
    30:     858.40 cm**-1
    31:     879.57 cm**-1
    32:     905.87 cm**-1
    33:     921.61 cm**-1
    34:     956.08 cm**-1
    35:     960.78 cm**-1
    36:     962.79 cm**-1
    37:     971.53 cm**-1
    38:    1014.19 cm**-1
    39:    1024.71 cm**-1
    40:    1050.57 cm**-1
    41:    1090.28 cm**-1
    42:    1136.25 cm**-1
    43:    1150.95 cm**-1
    44:    1205.37 cm**-1
    45:    1212.39 cm**-1
    46:    1236.65 cm**-1
    47:    1267.83 cm**-1
    48:    1272.06 cm**-1
    49:    1274.69 cm**-1
    50:    1356.33 cm**-1
    51:    1359.32 cm**-1
    52:    1388.14 cm**-1
    53:    1399.44 cm**-1
    54:    1413.78 cm**-1
    55:    1416.87 cm**-1
    56:    1441.47 cm**-1
    57:    1455.09 cm**-1
    58:    1456.58 cm**-1
    59:    1457.50 cm**-1
    60:    1466.42 cm**-1
    61:    1472.26 cm**-1
    62:    1475.14 cm**-1
    63:    1483.43 cm**-1
    64:    1487.09 cm**-1
    65:    1495.15 cm**-1
    66:    1826.46 cm**-1
    67:    1904.06 cm**-1
    68:    3060.65 cm**-1
    69:    3063.45 cm**-1
    70:    3063.66 cm**-1
    71:    3065.49 cm**-1
    72:    3068.04 cm**-1
    73:    3069.74 cm**-1
    74:    3152.54 cm**-1
    75:    3153.30 cm**-1
    76:    3162.65 cm**-1
    77:    3163.94 cm**-1
    78:    3164.87 cm**-1
    79:    3165.29 cm**-1
    80:    3177.88 cm**-1
    81:    3178.07 cm**-1
    82:    3186.82 cm**-1
    83:    3199.72 cm**-1

IR SPECTRUM
-----------

 Mode   freq       eps      Int      T**2         TX        TY        TZ
       cm**-1   L/(mol*cm) km/mol    a.u.
----------------------------------------------------------------------------
  6:     63.97   0.000234    1.18  0.001143  (-0.014820 -0.019966  0.022907)
  7:     66.97   0.000868    4.39  0.004045  ( 0.018338  0.046096  0.039800)
  8:     91.34   0.000610    3.08  0.002084  ( 0.007186 -0.040241 -0.020321)
  9:    201.43   0.000017    0.09  0.000027  (-0.002241 -0.002326  0.004010)
 10:    221.58   0.000132    0.67  0.000186  (-0.004577 -0.009830 -0.008289)
 11:    252.95   0.000025    0.13  0.000031  ( 0.002198  0.002682 -0.004350)
 12:    268.14   0.000023    0.11  0.000026  ( 0.004808 -0.001208  0.001332)
 13:    282.30   0.000078    0.39  0.000086  ( 0.003672  0.004253 -0.007375)
 14:    291.25   0.000045    0.23  0.000048  ( 0.002739  0.003497 -0.005342)
 15:    293.63   0.000040    0.20  0.000043  ( 0.002682  0.004390  0.004042)
 16:    326.35   0.000064    0.32  0.000061  (-0.001485  0.006955  0.003206)
 17:    337.95   0.000001    0.01  0.000001  ( 0.000322  0.000747  0.000551)
 18:    341.25   0.000941    4.76  0.000861  (-0.011620 -0.013678  0.023207)
 19:    361.98   0.000090    0.46  0.000078  (-0.007864  0.000064 -0.003998)
 20:    417.12   0.000633    3.20  0.000473  (-0.007971 -0.010701  0.017181)
 21:    417.95   0.000185    0.93  0.000138  (-0.009035  0.007323  0.001603)
 22:    448.19   0.000328    1.66  0.000228  ( 0.005978  0.007042 -0.011949)
 23:    501.65   0.002068   10.45  0.001286  (-0.014229 -0.016704  0.028372)
 24:    514.92   0.000357    1.80  0.000216  (-0.012764  0.006990 -0.002121)
 25:    586.62   0.000115    0.58  0.000061  ( 0.005026  0.004395  0.004106)
 26:    587.31   0.000026    0.13  0.000014  ( 0.000360  0.000684 -0.003624)
 27:    712.32   0.000075    0.38  0.000033  ( 0.000521  0.004765  0.003146)
 28:    759.97   0.000564    2.85  0.000232  ( 0.005473  0.010936  0.009069)
 29:    808.55   0.000463    2.34  0.000179  ( 0.005264  0.006256 -0.010573)
 30:    858.40   0.000101    0.51  0.000037  (-0.004623 -0.001986 -0.003382)
 31:    879.57   0.000003    0.01  0.000001  ( 0.000373  0.000423 -0.000811)
 32:    905.87   0.001945    9.83  0.000670  ( 0.020721 -0.015471  0.001123)
 33:    921.61   0.006667   33.69  0.002257  ( 0.018697  0.022259 -0.037582)
 34:    956.08   0.000022    0.11  0.000007  (-0.001047 -0.001200  0.002160)
 35:    960.78   0.000902    4.56  0.000293  ( 0.006573  0.007723 -0.013783)
 36:    962.79   0.000450    2.27  0.000146  ( 0.002129  0.009972  0.006465)
 37:    971.53   0.000122    0.61  0.000039  (-0.005764 -0.000166 -0.002413)
 38:   1014.19   0.000022    0.11  0.000007  ( 0.002061 -0.001558  0.000124)
 39:   1024.71   0.000154    0.78  0.000047  ( 0.002649  0.003196 -0.005437)
 40:   1050.57   0.000031    0.16  0.000009  (-0.001801  0.002382  0.000649)
 41:   1090.28   0.000682    3.45  0.000195  (-0.005561 -0.006529  0.011028)
 42:   1136.25   0.000046    0.23  0.000013  ( 0.000682  0.003149  0.001471)
 43:   1150.95   0.003109   15.71  0.000843  ( 0.011527  0.013460 -0.022996)
 44:   1205.37   0.002475   12.51  0.000641  (-0.010058 -0.011838  0.019986)
 45:   1212.39   0.000886    4.48  0.000228  (-0.003101  0.013388  0.006265)
 46:   1236.65   0.000518    2.62  0.000131  (-0.004529 -0.005337  0.009042)
 47:   1267.83   0.000560    2.83  0.000138  (-0.008724  0.007824  0.000675)
 48:   1272.06   0.004229   21.37  0.001037  ( 0.012382  0.015646 -0.025285)
 49:   1274.69   0.002532   12.80  0.000620  (-0.011367  0.020799  0.007620)
 50:   1356.33   0.011672   58.98  0.002685  ( 0.020300  0.024408 -0.040958)
 51:   1359.32   0.002868   14.49  0.000658  ( 0.016090 -0.019492 -0.004418)
 52:   1388.14   0.003225   16.30  0.000725  (-0.010591 -0.012592  0.021315)
 53:   1399.44   0.004515   22.82  0.001007  ( 0.020262  0.015358  0.018985)
 54:   1413.78   0.001430    7.23  0.000316  (-0.007153 -0.008082  0.014111)
 55:   1416.87   0.002855   14.43  0.000629  ( 0.018494 -0.016922 -0.000642)
 56:   1441.47   0.003424   17.31  0.000741  ( 0.010923  0.012639 -0.021501)
 57:   1455.09   0.000686    3.47  0.000147  (-0.005044 -0.005290  0.009677)
 58:   1456.58   0.000647    3.27  0.000139  (-0.004574  0.010737  0.001547)
 59:   1457.50   0.001048    5.30  0.000224  (-0.006297 -0.006126  0.012134)
 60:   1466.42   0.001506    7.61  0.000320  ( 0.008236 -0.015082 -0.005015)
 61:   1472.26   0.006162   31.14  0.001306  (-0.021041 -0.019387 -0.022080)
 62:   1475.14   0.000008    0.04  0.000002  ( 0.000546  0.000626  0.000977)
 63:   1483.43   0.006770   34.21  0.001424  (-0.015042 -0.017291  0.029982)
 64:   1487.09   0.002813   14.22  0.000590  (-0.007019  0.021725  0.008313)
 65:   1495.15   0.003230   16.32  0.000674  (-0.017351  0.019141  0.002584)
 66:   1826.46   0.012906   65.22  0.002205  ( 0.041186 -0.020995  0.008248)
 67:   1904.06   0.032591  164.70  0.005341  ( 0.065085 -0.029523  0.015288)
 68:   3060.65   0.000114    0.58  0.000012  ( 0.001434  0.001558 -0.002677)
 69:   3063.45   0.000013    0.07  0.000001  ( 0.000031 -0.000387 -0.001086)
 70:   3063.66   0.000022    0.11  0.000002  (-0.000323 -0.001240 -0.000773)
 71:   3065.49   0.000406    2.05  0.000041  (-0.002528 -0.003024  0.005083)
 72:   3068.04   0.000083    0.42  0.000008  (-0.001679 -0.001656 -0.001683)
 73:   3069.74   0.000020    0.10  0.000002  ( 0.001252 -0.000469  0.000532)
 74:   3152.54   0.000087    0.44  0.000009  (-0.000717  0.002163 -0.001848)
 75:   3153.30   0.000503    2.54  0.000050  ( 0.005860 -0.003933 -0.000115)
 76:   3162.65   0.000483    2.44  0.000048  (-0.003305 -0.003681  0.004811)
 77:   3163.94   0.000760    3.84  0.000075  ( 0.004920  0.004489  0.005532)
 78:   3164.87   0.000338    1.71  0.000033  ( 0.002364  0.002263 -0.004755)
 79:   3165.29   0.000088    0.44  0.000009  ( 0.002202 -0.001015  0.001672)
 80:   3177.88   0.000334    1.69  0.000033  (-0.002513 -0.002704  0.004376)
 81:   3178.07   0.000040    0.20  0.000004  ( 0.000911 -0.000376  0.001723)
 82:   3186.82   0.000016    0.08  0.000002  (-0.000283 -0.000655  0.001036)
 83:   3199.72   0.000250    1.26  0.000024  (-0.004507  0.000442 -0.001960)

--------------------------
THERMOCHEMISTRY AT 298.15K
--------------------------

Temperature         ...   298.15 K
Pressure            ...     1.00 atm
Total Mass          ...   170.23 AMU
Quasi RRHO          ...     True
Cut-Off Frequency   ...     1.00 cm^-1

Throughout the following assumptions are being made:
  (1) The electronic state is orbitally nondegenerate
  (2) There are no thermally accessible electronically excited states
  (3) Hindered rotations indicated by low frequency modes are not
      treated as such but are treated as vibrations and this may
      cause some error
  (4) All equations used are the standard statistical mechanics
      equations for an ideal gas
  (5) All vibrations are strictly harmonic

freq.      63.97  E(vib)   ...       0.51
freq.      66.97  E(vib)   ...       0.50
freq.      91.34  E(vib)   ...       0.47
freq.     201.43  E(vib)   ...       0.35
freq.     221.58  E(vib)   ...       0.33
freq.     252.95  E(vib)   ...       0.30
freq.     268.14  E(vib)   ...       0.29
freq.     282.30  E(vib)   ...       0.28
freq.     291.25  E(vib)   ...       0.27
freq.     293.63  E(vib)   ...       0.27
freq.     326.35  E(vib)   ...       0.24
freq.     337.95  E(vib)   ...       0.24
freq.     341.25  E(vib)   ...       0.23
freq.     361.98  E(vib)   ...       0.22
freq.     417.12  E(vib)   ...       0.18
freq.     417.95  E(vib)   ...       0.18
freq.     448.19  E(vib)   ...       0.17
freq.     501.65  E(vib)   ...       0.14
freq.     514.92  E(vib)   ...       0.13
freq.     586.62  E(vib)   ...       0.11
freq.     587.31  E(vib)   ...       0.10
freq.     712.32  E(vib)   ...       0.07
freq.     759.97  E(vib)   ...       0.06
freq.     808.55  E(vib)   ...       0.05
freq.     858.40  E(vib)   ...       0.04
freq.     879.57  E(vib)   ...       0.04
freq.     905.87  E(vib)   ...       0.03
freq.     921.61  E(vib)   ...       0.03
freq.     956.08  E(vib)   ...       0.03
freq.     960.78  E(vib)   ...       0.03
freq.     962.79  E(vib)   ...       0.03
freq.     971.53  E(vib)   ...       0.03
freq.    1014.19  E(vib)   ...       0.02
freq.    1024.71  E(vib)   ...       0.02
freq.    1050.57  E(vib)   ...       0.02
freq.    1090.28  E(vib)   ...       0.02
freq.    1136.25  E(vib)   ...       0.01
freq.    1150.95  E(vib)   ...       0.01
freq.    1205.37  E(vib)   ...       0.01
freq.    1212.39  E(vib)   ...       0.01
freq.    1236.65  E(vib)   ...       0.01
freq.    1267.83  E(vib)   ...       0.01
freq.    1272.06  E(vib)   ...       0.01
freq.    1274.69  E(vib)   ...       0.01
freq.    1356.33  E(vib)   ...       0.01
freq.    1359.32  E(vib)   ...       0.01
freq.    1388.14  E(vib)   ...       0.00
freq.    1399.44  E(vib)   ...       0.00
freq.    1413.78  E(vib)   ...       0.00
freq.    1416.87  E(vib)   ...       0.00
freq.    1441.47  E(vib)   ...       0.00
freq.    1455.09  E(vib)   ...       0.00
freq.    1456.58  E(vib)   ...       0.00
freq.    1457.50  E(vib)   ...       0.00
freq.    1466.42  E(vib)   ...       0.00
freq.    1472.26  E(vib)   ...       0.00
freq.    1475.14  E(vib)   ...       0.00
freq.    1483.43  E(vib)   ...       0.00
freq.    1487.09  E(vib)   ...       0.00
freq.    1495.15  E(vib)   ...       0.00
freq.    1826.46  E(vib)   ...       0.00
freq.    1904.06  E(vib)   ...       0.00
freq.    3060.65  E(vib)   ...       0.00
freq.    3063.45  E(vib)   ...       0.00
freq.    3063.66  E(vib)   ...       0.00
freq.    3065.49  E(vib)   ...       0.00
freq.    3068.04  E(vib)   ...       0.00
freq.    3069.74  E(vib)   ...       0.00
freq.    3152.54  E(vib)   ...       0.00
freq.    3153.30  E(vib)   ...       0.00
freq.    3162.65  E(vib)   ...       0.00
freq.    3163.94  E(vib)   ...       0.00
freq.    3164.87  E(vib)   ...       0.00
freq.    3165.29  E(vib)   ...       0.00
freq.    3177.88  E(vib)   ...       0.00
freq.    3178.07  E(vib)   ...       0.00
freq.    3186.82  E(vib)   ...       0.00
freq.    3199.72  E(vib)   ...       0.00

------------
INNER ENERGY
------------

The inner energy is: U= E(el) + E(ZPE) + E(vib) + E(rot) + E(trans)
    E(el)   - is the total energy from the electronic structure calculation
              = E(kin-el) + E(nuc-el) + E(el-el) + E(nuc-nuc)
    E(ZPE)  - the the zero temperature vibrational energy from the frequency calculation
    E(vib)  - the the finite temperature correction to E(ZPE) due to population
              of excited vibrational states
    E(rot)  - is the rotational thermal energy
    E(trans)- is the translational thermal energy

Summary of contributions to the inner energy U:
Electronic energy                ...   -556.41000359 Eh
Zero point energy                ...      0.24458162 Eh     153.48 kcal/mol
Thermal vibrational correction   ...      0.00981834 Eh       6.16 kcal/mol
Thermal rotational correction    ...      0.00141627 Eh       0.89 kcal/mol
Thermal translational correction ...      0.00141627 Eh       0.89 kcal/mol
-----------------------------------------------------------------------
Total thermal energy                   -556.15277108 Eh

Summary of corrections to the electronic energy:
(perhaps to be used in another calculation)
Total thermal correction                  0.01265089 Eh       7.94 kcal/mol
Non-thermal (ZPE) correction              0.24458162 Eh     153.48 kcal/mol
-----------------------------------------------------------------------
Total correction                          0.25723251 Eh     161.42 kcal/mol

--------
ENTHALPY
--------

The enthalpy is H = U + kB*T
                kB is Boltzmann's constant
Total thermal energy              ...   -556.15277108 Eh
Thermal Enthalpy correction       ...      0.00094421 Eh       0.59 kcal/mol
-----------------------------------------------------------------------
Total Enthalpy                    ...   -556.15182687 Eh

Note: Only C1 symmetry has been detected, increase convergence thresholds
      if your molecule has a higher symmetry. Symmetry factor of 1.0 is
      used for the rotational entropy correction.

Note: Rotational entropy computed according to Herzberg
Infrared and Raman Spectra, Chapter V,1, Van Nostrand Reinhold, 1945
Point Group:  C1, Symmetry Number:   1
Rotational constants in cm-1:     0.036291     0.035500     0.023692

Vibrational entropy computed according to the QRRHO of S. Grimme
Chem.Eur.J. 2012 18 9955 using a reference frequency of 100.0 cm-1

-------
ENTROPY
-------

The entropy contributions are T*S = T*(S(el)+S(vib)+S(rot)+S(trans))
     S(el)   - electronic entropy

                             ****ORCA TERMINATED NORMALLY****
TOTAL RUN TIME: 0 days 0 hours 40 minutes 56 seconds 520 msec
