                         Program Version 6.0.0  -   RELEASE  -
|  1> !PBE0 def2-SV(p) Opt Freq d3 TightSCF SlowConv RIJCOSX defgrid2
|  2>
|  3> %pal
|  4> nprocs 4
|  5> end
|  6>
|  7> %scf
|  8> MaxIter 1500
|  9> end
| 10>
| 11> %maxcore 3000
| 12>
| 13>
| 14>
| 15> * xyz 0 1
| 16> C     1.2442799   -1.4034809   -0.0000059
| 17> C     2.4099578   -0.6889288   -0.0000126
| 18> C     2.3845580    0.7161659   -0.0000042
| 19> C     1.1960636    1.3921230    0.0000028
| 20> C    -0.0244835    0.6836942    0.0000021
| 21> N    -1.1812960    1.3806475   -0.0000015
| 22> C    -2.3056383    0.7204562    0.0000069
| 23> C    -2.3963126   -0.6841465    0.0000216
| 24> C    -1.2384156   -1.4134132    0.0000177
| 25> C     0.0009881   -0.7391664    0.0000053
| 26> H    -1.2536779   -2.4947144    0.0000275
| 27> H    -3.3642104   -1.1608906    0.0000350
| 28> H    -3.2057305    1.3235387    0.0000021
| 29> H     1.1554005    2.4701809    0.0000105
| 30> H     3.3176951    1.2597244   -0.0000033
| 31> H     3.3610460   -1.2002772   -0.0000254
| 32> H     1.2556451   -2.4842559   -0.0000126
| 33> *
| 34>
| 35>                          ****END OF INPUT****
 Total Charge           Charge          ....    0
 Multiplicity           Mult            ....    1
 Number of Electrons    NEL             ....   68
Dispersion correction           -0.017448787
FINAL SINGLE POINT ENERGY      -401.170053810130
Dispersion correction             ... done (  0.0 sec)
Dispersion correction           -0.017386479
FINAL SINGLE POINT ENERGY      -401.171642882459
Dispersion correction             ... done (  0.0 sec)
Dispersion correction           -0.017382073
FINAL SINGLE POINT ENERGY      -401.171667943625
Dispersion correction             ... done (  0.0 sec)
Dispersion correction           -0.017381032
FINAL SINGLE POINT ENERGY      -401.171674571412
Dispersion correction             ... done (  0.1 sec)
                    ***********************HURRAY********************

CARTESIAN COORDINATES (ANGSTROEM)
---------------------------------
  C      1.250002   -1.410714   -0.000002
  C      2.424725   -0.694791   -0.000007
  C      2.398543    0.720675   -0.000009
  C      1.201177    1.397512   -0.000004
  C     -0.027456    0.688525    0.000006
  N     -1.186258    1.393816    0.000011
  C     -2.314902    0.730493    0.000017
  C     -2.405702   -0.683978    0.000018
  C     -1.243686   -1.416181    0.000010
  C      0.000940   -0.740221    0.000003
  H     -1.262328   -2.511061    0.000009
  H     -3.385634   -1.168897    0.000024
  H     -3.235522    1.329839    0.000021
  H      1.152013    2.488984   -0.000006
  H      3.341137    1.276118   -0.000014
  H      3.385619   -1.217569   -0.000010
  H      1.263202   -2.505293   -0.000000

 Multiplicity           Mult            ....    1
 Number of Electrons    NEL             ....   68
 Basis Dimension        Dim             ....  154

ORBITAL ENERGIES
----------------

  NO   OCC          E(Eh)            E(eV)
   0   2.0000     -14.386813      -391.4851
   1   2.0000     -10.273990      -279.5695
   2   2.0000     -10.271668      -279.5063
   3   2.0000     -10.258702      -279.1535
   4   2.0000     -10.255281      -279.0604
   5   2.0000     -10.247833      -278.8577
   6   2.0000     -10.247181      -278.8400
   7   2.0000     -10.245867      -278.8042
   8   2.0000     -10.245078      -278.7827
   9   2.0000     -10.238193      -278.5954
  10   2.0000      -0.969943       -26.3935
  11   2.0000      -0.873668       -23.7737
  12   2.0000      -0.829511       -22.5722
  13   2.0000      -0.772378       -21.0175
  14   2.0000      -0.760913       -20.7055
  15   2.0000      -0.662878       -18.0378
  16   2.0000      -0.649936       -17.6857
  17   2.0000      -0.621808       -16.9203
  18   2.0000      -0.547133       -14.8882
  19   2.0000      -0.535795       -14.5797
  20   2.0000      -0.527545       -14.3552
  21   2.0000      -0.475338       -12.9346
  22   2.0000      -0.456705       -12.4276
  23   2.0000      -0.448138       -12.1945
  24   2.0000      -0.434619       -11.8266
  25   2.0000      -0.428872       -11.6702
  26   2.0000      -0.420728       -11.4486
  27   2.0000      -0.376474       -10.2444
  28   2.0000      -0.366911        -9.9842
  29   2.0000      -0.363524        -9.8920
  30   2.0000      -0.326361        -8.8807
  31   2.0000      -0.269421        -7.3313
  32   2.0000      -0.268383        -7.3031
  33   2.0000      -0.250125        -6.8062
  34   0.0000      -0.055970        -1.5230
  35   0.0000      -0.020140        -0.5480
  36   0.0000       0.017899         0.4871
  37   0.0000       0.069850         1.9007
  38   0.0000       0.085110         2.3160

MULLIKEN ATOMIC CHARGES
-----------------------
   0 C :   -0.137468
   1 C :   -0.077148
   2 C :   -0.092651
   3 C :   -0.089904
   4 C :    0.025499
   5 N :   -0.142377
   6 C :   -0.038473
   7 C :   -0.129914
   8 C :   -0.066536
   9 C :    0.057064
  10 H :    0.097053
  11 H :    0.106176
  12 H :    0.110230
  13 H :    0.088727
  14 H :    0.102974
  15 H :    0.100747
  16 H :    0.085999
Sum of atomic charges:    0.0000000

LOEWDIN ATOMIC CHARGES
----------------------
   0 C :   -0.116645
   1 C :   -0.126055
   2 C :   -0.123017
   3 C :   -0.112409
   4 C :    0.000568
   5 N :   -0.086799
   6 C :   -0.068711
   7 C :   -0.156535
   8 C :   -0.084916
   9 C :   -0.048000
  10 H :    0.133497
  11 H :    0.135061
  12 H :    0.120547
  13 H :    0.138876
  14 H :    0.132440
  15 H :    0.131788
  16 H :    0.130310

  Mayer bond orders larger than 0.100000
B(  0-C ,  1-C ) :   1.5014 B(  0-C ,  9-C ) :   1.2440 B(  0-C , 16-H ) :   0.9640
B(  1-C ,  2-C ) :   1.2558 B(  1-C , 15-H ) :   0.9618 B(  2-C ,  3-C ) :   1.4711
B(  2-C , 14-H ) :   0.9622 B(  3-C ,  4-C ) :   1.2748 B(  3-C , 13-H ) :   0.9608
B(  4-C ,  5-N ) :   1.3798 B(  4-C ,  9-C ) :   1.2254 B(  5-N ,  6-C ) :   1.6409
B(  6-C ,  7-C ) :   1.2502 B(  6-C , 12-H ) :   0.9507 B(  7-C ,  8-C ) :   1.5348
B(  7-C , 11-H ) :   0.9475 B(  8-C ,  9-C ) :   1.2792 B(  8-C , 10-H ) :   0.9542

Dispersion correction           -0.017381491
FINAL SINGLE POINT ENERGY      -401.171675028898

DIPOLE MOMENT
-------------

Method             : SCF
Type of density    : Electron Density
Multiplicity       :   1
Irrep              :   0
Energy             :  -401.1542935379541177 Eh
Relativity type    :
Basis              : AO
                                X                 Y                 Z
Electronic contribution:     -1.085975773       1.389123096       0.000005938
Nuclear contribution   :      1.170564310      -2.171626680      -0.000005487
                        -----------------------------------------
Total Dipole Moment    :      0.084588537      -0.782503584       0.000000451
                        -----------------------------------------
Magnitude (a.u.)       :      0.787062310
Magnitude (Debye)      :      2.000553404

VIBRATIONAL FREQUENCIES
-----------------------

Scaling factor for frequencies =  1.000000000  (already applied!)

     0:       0.00 cm**-1
     1:       0.00 cm**-1
     2:       0.00 cm**-1
     3:       0.00 cm**-1
     4:       0.00 cm**-1
     5:       0.00 cm**-1
     6:     176.27 cm**-1
     7:     186.50 cm**-1
     8:     383.04 cm**-1
     9:     408.38 cm**-1
    10:     487.21 cm**-1
    11:     501.15 cm**-1
    12:     529.34 cm**-1
    13:     532.30 cm**-1
    14:     621.69 cm**-1
    15:     656.71 cm**-1
    16:     755.87 cm**-1
    17:     786.74 cm**-1
    18:     825.32 cm**-1
    19:     831.99 cm**-1
    20:     833.17 cm**-1
    21:     909.88 cm**-1
    22:     952.32 cm**-1
    23:     977.45 cm**-1
    24:     990.84 cm**-1
    25:    1015.08 cm**-1
    26:    1026.32 cm**-1
    27:    1051.54 cm**-1
    28:    1069.15 cm**-1
    29:    1141.59 cm**-1
    30:    1156.86 cm**-1
    31:    1165.83 cm**-1
    32:    1257.42 cm**-1
    33:    1272.21 cm**-1
    34:    1287.46 cm**-1
    35:    1409.15 cm**-1
    36:    1422.76 cm**-1
    37:    1449.41 cm**-1
    38:    1489.35 cm**-1
    39:    1524.79 cm**-1
    40:    1577.23 cm**-1
    41:    1657.58 cm**-1
    42:    1687.49 cm**-1
    43:    1715.00 cm**-1
    44:    3163.08 cm**-1
    45:    3191.15 cm**-1
    46:    3194.14 cm**-1
    47:    3203.27 cm**-1
    48:    3217.34 cm**-1
    49:    3222.04 cm**-1
    50:    3229.90 cm**-1

IR SPECTRUM
-----------

 Mode   freq       eps      Int      T**2         TX        TY        TZ
       cm**-1   L/(mol*cm) km/mol    a.u.
----------------------------------------------------------------------------
  6:    176.27   0.000836    4.22  0.001479  (-0.000000 -0.000000 -0.038460)
  7:    186.50   0.000022    0.11  0.000037  (-0.000000 -0.000001  0.006082)
  8:    383.04   0.000771    3.90  0.000628  (-0.014298  0.020589 -0.000000)
  9:    408.38   0.000316    1.60  0.000241  ( 0.000000 -0.000001 -0.015532)
 10:    487.21   0.000017    0.09  0.000011  (-0.000000  0.000000 -0.003292)
 11:    501.15   0.001562    7.89  0.000973  ( 0.000000  0.000000  0.031189)
 12:    529.34   0.000021    0.10  0.000012  ( 0.002122  0.002766 -0.000000)
 13:    532.30   0.000031    0.15  0.000018  ( 0.001059 -0.004097  0.000000)
 14:    621.69   0.001195    6.04  0.000600  (-0.017035 -0.017601 -0.000000)
 15:    656.71   0.000161    0.81  0.000076  ( 0.000000 -0.000000  0.008735)
 16:    755.87   0.001547    7.82  0.000639  ( 0.000000 -0.000000  0.025274)
 17:    786.74   0.000397    2.00  0.000157  (-0.008756  0.008980  0.000001)
 18:    825.32   0.011974   60.51  0.004528  (-0.000000 -0.000000 -0.067288)
 19:    831.99   0.000142    0.72  0.000053  (-0.000655 -0.007274 -0.000006)
 20:    833.17   0.003074   15.53  0.001151  (-0.000000 -0.000002  0.033931)
 21:    909.88   0.000056    0.28  0.000019  ( 0.000000 -0.000000 -0.004364)
 22:    952.32   0.001016    5.13  0.000333  ( 0.006263 -0.017134  0.000000)
 23:    977.45   0.000004    0.02  0.000001  (-0.000000 -0.000000  0.001169)
 24:    990.84   0.000208    1.05  0.000066  ( 0.000000 -0.000001  0.008095)
 25:   1015.08   0.000156    0.79  0.000048  (-0.000000 -0.000000 -0.006919)
 26:   1026.32   0.000012    0.06  0.000004  ( 0.000000 -0.000000  0.001886)
 27:   1051.54   0.000798    4.03  0.000237  (-0.015293 -0.001738  0.000000)
 28:   1069.15   0.000367    1.86  0.000107  (-0.006486  0.008067  0.000000)
 29:   1141.59   0.002514   12.71  0.000687  (-0.007908 -0.024996  0.000000)
 30:   1156.86   0.000192    0.97  0.000052  ( 0.006006 -0.003974  0.000000)
 31:   1165.83   0.000317    1.60  0.000085  ( 0.007247 -0.005682  0.000000)
 32:   1257.42   0.000510    2.58  0.000127  ( 0.011249  0.000001 -0.000000)
 33:   1272.21   0.000004    0.02  0.000001  ( 0.000829  0.000541 -0.000000)
 34:   1287.46   0.000121    0.61  0.000029  ( 0.000604 -0.005371 -0.000000)
 35:   1409.15   0.002418   12.22  0.000535  ( 0.017273  0.015396 -0.000000)
 36:   1422.76   0.000540    2.73  0.000118  ( 0.003707  0.010230 -0.000000)
 37:   1449.41   0.000540    2.73  0.000116  (-0.009804  0.004481  0.000000)
 38:   1489.35   0.000276    1.40  0.000058  ( 0.002266 -0.007264  0.000000)
 39:   1524.79   0.000188    0.95  0.000039  ( 0.003240 -0.005297 -0.000000)
 40:   1577.23   0.005704   28.83  0.001129  ( 0.028676 -0.017500 -0.000000)
 41:   1657.58   0.002946   14.89  0.000555  (-0.007856 -0.022201  0.000000)
 42:   1687.49   0.002238   11.31  0.000414  (-0.016513  0.011885  0.000000)
 43:   1715.00   0.002403   12.15  0.000437  (-0.020729 -0.002763  0.000000)
 44:   3163.08   0.004932   24.92  0.000487  (-0.019634  0.010053  0.000000)
 45:   3191.15   0.000164    0.83  0.000016  (-0.000066  0.004006  0.000000)
 46:   3194.14   0.001189    6.01  0.000116  ( 0.001887 -0.010613 -0.000000)
 47:   3203.27   0.001476    7.46  0.000144  (-0.002746 -0.011674  0.000000)
 48:   3217.34   0.002346   11.85  0.000228  (-0.012618  0.008264  0.000000)
 49:   3222.04   0.001929    9.75  0.000187  (-0.011945 -0.006644  0.000000)
 50:   3229.90   0.001088    5.50  0.000105  (-0.008640 -0.005517  0.000000)

--------------------------
THERMOCHEMISTRY AT 298.15K
--------------------------

Temperature         ...   298.15 K
Pressure            ...     1.00 atm
Total Mass          ...   129.16 AMU
Quasi RRHO          ...     True
Cut-Off Frequency   ...     1.00 cm^-1

Throughout the following assumptions are being made:
  (1) The electronic state is orbitally nondegenerate
  (2) There are no thermally accessible electronically excited states
  (3) Hindered rotations indicated by low frequency modes are not
      treated as such but are treated as vibrations and this may
      cause some error
  (4) All equations used are the standard statistical mechanics
      equations for an ideal gas
  (5) All vibrations are strictly harmonic

freq.     176.27  E(vib)   ...       0.38
freq.     186.50  E(vib)   ...       0.37
freq.     383.04  E(vib)   ...       0.20
freq.     408.38  E(vib)   ...       0.19
freq.     487.21  E(vib)   ...       0.15
freq.     501.15  E(vib)   ...       0.14
freq.     529.34  E(vib)   ...       0.13
freq.     532.30  E(vib)   ...       0.13
freq.     621.69  E(vib)   ...       0.09
freq.     656.71  E(vib)   ...       0.08
freq.     755.87  E(vib)   ...       0.06
freq.     786.74  E(vib)   ...       0.05
freq.     825.32  E(vib)   ...       0.04
freq.     831.99  E(vib)   ...       0.04
freq.     833.17  E(vib)   ...       0.04
freq.     909.88  E(vib)   ...       0.03
freq.     952.32  E(vib)   ...       0.03
freq.     977.45  E(vib)   ...       0.03
freq.     990.84  E(vib)   ...       0.02
freq.    1015.08  E(vib)   ...       0.02
freq.    1026.32  E(vib)   ...       0.02
freq.    1051.54  E(vib)   ...       0.02
freq.    1069.15  E(vib)   ...       0.02
freq.    1141.59  E(vib)   ...       0.01
freq.    1156.86  E(vib)   ...       0.01
freq.    1165.83  E(vib)   ...       0.01
freq.    1257.42  E(vib)   ...       0.01
freq.    1272.21  E(vib)   ...       0.01
freq.    1287.46  E(vib)   ...       0.01
freq.    1409.15  E(vib)   ...       0.00
freq.    1422.76  E(vib)   ...       0.00
freq.    1449.41  E(vib)   ...       0.00
freq.    1489.35  E(vib)   ...       0.00
freq.    1524.79  E(vib)   ...       0.00
freq.    1577.23  E(vib)   ...       0.00
freq.    1657.58  E(vib)   ...       0.00
freq.    1687.49  E(vib)   ...       0.00
freq.    1715.00  E(vib)   ...       0.00
freq.    3163.08  E(vib)   ...       0.00
freq.    3191.15  E(vib)   ...       0.00
freq.    3194.14  E(vib)   ...       0.00
freq.    3203.27  E(vib)   ...       0.00
freq.    3217.34  E(vib)   ...       0.00
freq.    3222.04  E(vib)   ...       0.00
freq.    3229.90  E(vib)   ...       0.00

------------
INNER ENERGY
------------

The inner energy is: U= E(el) + E(ZPE) + E(vib) + E(rot) + E(trans)
    E(el)   - is the total energy from the electronic structure calculation
              = E(kin-el) + E(nuc-el) + E(el-el) + E(nuc-nuc)
    E(ZPE)  - the the zero temperature vibrational energy from the frequency calculation
    E(vib)  - the the finite temperature correction to E(ZPE) due to population
              of excited vibrational states
    E(rot)  - is the rotational thermal energy
    E(trans)- is the translational thermal energy

Summary of contributions to the inner energy U:
Electronic energy                ...   -401.17167503 Eh
Zero point energy                ...      0.13701652 Eh      85.98 kcal/mol
Thermal vibrational correction   ...      0.00377374 Eh       2.37 kcal/mol
Thermal rotational correction    ...      0.00141627 Eh       0.89 kcal/mol
Thermal translational correction ...      0.00141627 Eh       0.89 kcal/mol
-----------------------------------------------------------------------
Total thermal energy                   -401.02805223 Eh

Summary of corrections to the electronic energy:
(perhaps to be used in another calculation)
Total thermal correction                  0.00660628 Eh       4.15 kcal/mol
Non-thermal (ZPE) correction              0.13701652 Eh      85.98 kcal/mol
-----------------------------------------------------------------------
Total correction                          0.14362280 Eh      90.12 kcal/mol

--------
ENTHALPY
--------

The enthalpy is H = U + kB*T
                kB is Boltzmann's constant
Total thermal energy              ...   -401.02805223 Eh
Thermal Enthalpy correction       ...      0.00094421 Eh       0.59 kcal/mol
-----------------------------------------------------------------------
Total Enthalpy                    ...   -401.02710802 Eh

Note: Rotational entropy computed according to Herzberg
Infrared and Raman Spectra, Chapter V,1, Van Nostrand Reinhold, 1945
Point Group:  Cs, Symmetry Number:   1
Rotational constants in cm-1:     0.105214     0.042414     0.030228

Vibrational entropy computed according to the QRRHO of S. Grimme
Chem.Eur.J. 2012 18 9955 using a reference frequency of 100.0 cm-1

-------
ENTROPY
-------

The entropy contributions are T*S = T*(S(el)+S(vib)+S(rot)+S(trans))
     S(el)   - electronic entropy
     S(vib)  - vibrational entropy
     S(rot)  - rotational entropy
     S(trans)- translational entropy
The entropies will be listed as multiplied by the temperature to get
units of energy

Electronic entropy                ...      0.00000000 Eh      0.00 kcal/mol
Vibrational entropy               ...      0.00570302 Eh      3.58 kcal/mol
Rotational entropy                ...      0.01371761 Eh      8.61 kcal/mol
Translational entropy             ...      0.01923366 Eh     12.07 kcal/mol
-----------------------------------------------------------------------
Final entropy term                ...      0.03865430 Eh     24.26 kcal/mol

In case the symmetry of your molecule has not been determined correctly
or in case you have a reason to use a different symmetry number we print
out the resulting rotational entropy values for sn=1,12:

 non-linear molecules -----------------------------------
|  sn= 1 | S(rot)=       0.01371761 Eh      8.61 kcal/mol|
|  sn= 2 | S(rot)=       0.01306316 Eh      8.20 kcal/mol|
|  sn= 3 | S(rot)=       0.01268032 Eh      7.96 kcal/mol|
|  sn= 4 | S(rot)=       0.01240870 Eh      7.79 kcal/mol|
|  sn= 5 | S(rot)=       0.01219801 Eh      7.65 kcal/mol|
|  sn= 6 | S(rot)=       0.01202587 Eh      7.55 kcal/mol|
|  sn= 7 | S(rot)=       0.01188032 Eh      7.45 kcal/mol|
|  sn= 8 | S(rot)=       0.01175424 Eh      7.38 kcal/mol|
|  sn= 9 | S(rot)=       0.01164304 Eh      7.31 kcal/mol|
|  sn=10 | S(rot)=       0.01154356 Eh      7.24 kcal/mol|
|  sn=11 | S(rot)=       0.01145357 Eh      7.19 kcal/mol|
|  sn=12 | S(rot)=       0.01137141 Eh      7.14 kcal/mol|
 linear molecules ---------------------------------------
|  Dinfh | S(rot)=       0.00862947 Eh      5.42 kcal/mol|
|  Cinfv | S(rot)=       0.00928393 Eh      5.83 kcal/mol|
 --------------------------------------------------------

-------------------
GIBBS FREE ENERGY

                             ****ORCA TERMINATED NORMALLY****
TOTAL RUN TIME: 0 days 0 hours 7 minutes 53 seconds 654 msec
