                         Program Version 6.0.0  -   RELEASE  -
|  1> !PBE0 def2-SV(p) Opt Freq d3 TightSCF SlowConv RIJCOSX defgrid2
|  2>
|  3> %pal
|  4> nprocs 15
|  5> end
|  6>
|  7> %scf
|  8> MaxIter 1500
|  9> end
| 10>
| 11> %maxcore 3500
| 12>
| 13>
| 14>
| 15> * xyz 0 1
| 16> C        0.004558812      0.000000000     -3.489690367
| 17> C       -0.056108968     -0.041695056      0.734815434
| 18> C        1.100442554     -0.178592914      1.507595227
| 19> C        0.996422886     -0.206810306      2.892232778
| 20> C       -0.260589785     -0.097742889      3.477472972
| 21> C       -1.365695149      0.035745257      2.642920802
| 22> N       -1.272951864      0.063773284      1.305431273
| 23> H        2.085183304     -0.263891796      1.043943022
| 24> H        1.893469747     -0.313467420      3.508699830
| 25> H       -0.382723826     -0.115841507      4.563891648
| 26> H       -2.374762822      0.124846981      3.057190647
| 27> C       -0.003918387     -0.005826117     -0.738868984
| 28> C        1.001184344      0.684949404     -1.421612535
| 29> C        1.004814116      0.687444036     -2.810431477
| 30> C       -0.962051684     -0.664321019     -2.741428371
| 31> N       -0.971945302     -0.671120592     -1.400488027
| 32> H        1.784447261      1.223261391     -0.884320244
| 33> H        1.785498525      1.223983885     -3.357018433
| 34> H       -0.026054626     -0.021039663     -4.582471223
| 35> H       -1.768598059     -1.218634998     -3.231321350
| 36> *
| 37>
| 38>                          ****END OF INPUT****
 Total Charge           Charge          ....    0
 Multiplicity           Mult            ....    1
 Number of Electrons    NEL             ....   82
Dispersion correction           -0.020537148
FINAL SINGLE POINT ENERGY      -494.441840585912
Dispersion correction             ... done (  0.1 sec)
Dispersion correction           -0.020556717
FINAL SINGLE POINT ENERGY      -494.443111973999
Dispersion correction             ... done (  0.1 sec)
Dispersion correction           -0.020561484
FINAL SINGLE POINT ENERGY      -494.443306415686
Dispersion correction             ... done (  0.1 sec)
Dispersion correction           -0.020561647
FINAL SINGLE POINT ENERGY      -494.443333910517
Dispersion correction             ... done (  0.1 sec)
Dispersion correction           -0.020562084
FINAL SINGLE POINT ENERGY      -494.443342967409
Dispersion correction             ... done (  0.1 sec)
                    ***********************HURRAY********************

CARTESIAN COORDINATES (ANGSTROEM)
---------------------------------
  C      0.006369    0.003447   -3.485681
  C     -0.073296   -0.043981    0.741381
  C      1.102722   -0.107993    1.502787
  C      1.006142   -0.136903    2.890489
  C     -0.257004   -0.099955    3.473718
  C     -1.365975   -0.041573    2.627116
  N     -1.282909   -0.016225    1.304432
  H      2.078643   -0.161482    1.013905
  H      1.907873   -0.196748    3.507596
  H     -0.385808   -0.120694    4.559345
  H     -2.379433   -0.012306    3.048458
  C     -0.019601   -0.011561   -0.746880
  C      1.036754    0.624257   -1.415314
  C      1.046803    0.630757   -2.806691
  C     -1.000648   -0.596961   -2.727139
  N     -1.019211   -0.605495   -1.401773
  H      1.825540    1.129719   -0.852611
  H      1.854140    1.128386   -3.352693
  H     -0.031361   -0.018729   -4.578225
  H     -1.839118   -1.100940   -3.225676

 Multiplicity           Mult            ....    1
 Number of Electrons    NEL             ....   82
 Basis Dimension        Dim             ....  184

ORBITAL ENERGIES
----------------

  NO   OCC          E(Eh)            E(eV)
   0   2.0000     -14.384285      -391.4163
   1   2.0000     -14.384231      -391.4148
   2   2.0000     -10.278166      -279.6831
   3   2.0000     -10.278028      -279.6794
   4   2.0000     -10.268066      -279.4083
   5   2.0000     -10.268053      -279.4079
   6   2.0000     -10.257869      -279.1308
   7   2.0000     -10.257841      -279.1300
   8   2.0000     -10.248944      -278.8880
   9   2.0000     -10.248907      -278.8869
  10   2.0000     -10.246859      -278.8312
  11   2.0000     -10.246856      -278.8311
  12   2.0000      -0.979285       -26.6477
  13   2.0000      -0.957825       -26.0637
  14   2.0000      -0.828371       -22.5411
  15   2.0000      -0.822106       -22.3707
  16   2.0000      -0.812113       -22.0987
  17   2.0000      -0.760075       -20.6827
  18   2.0000      -0.672690       -18.3048
  19   2.0000      -0.661525       -18.0010
  20   2.0000      -0.634725       -17.2717
  21   2.0000      -0.618687       -16.8353
  22   2.0000      -0.558009       -15.1842
  23   2.0000      -0.523112       -14.2346
  24   2.0000      -0.518054       -14.0970
  25   2.0000      -0.493119       -13.4184
  26   2.0000      -0.490400       -13.3445
  27   2.0000      -0.459878       -12.5139
  28   2.0000      -0.447167       -12.1680
  29   2.0000      -0.435791       -11.8585
  30   2.0000      -0.423547       -11.5253
  31   2.0000      -0.417624       -11.3641
  32   2.0000      -0.407891       -11.0993
  33   2.0000      -0.393362       -10.7039
  34   2.0000      -0.377004       -10.2588
  35   2.0000      -0.313270        -8.5245
  36   2.0000      -0.303753        -8.2655
  37   2.0000      -0.297023        -8.0824
  38   2.0000      -0.267029        -7.2662
  39   2.0000      -0.260828        -7.0975
  40   2.0000      -0.257878        -7.0172
  41   0.0000      -0.048314        -1.3147
  42   0.0000      -0.023890        -0.6501
  43   0.0000      -0.018787        -0.5112
  44   0.0000       0.018218         0.4957
  45   0.0000       0.069305         1.8859

MULLIKEN ATOMIC CHARGES
-----------------------
   0 C :   -0.129695
   1 C :    0.035131
   2 C :   -0.136794
   3 C :   -0.041933
   4 C :   -0.130071
   5 C :   -0.033595
   6 N :   -0.121974
   7 H :    0.101515
   8 H :    0.107486
   9 H :    0.108627
  10 H :    0.111437
  11 C :    0.034501
  12 C :   -0.136691
  13 C :   -0.042057
  14 C :   -0.034034
  15 N :   -0.121199
  16 H :    0.101668
  17 H :    0.107587
  18 H :    0.108517
  19 H :    0.111575
Sum of atomic charges:    0.0000000

LOEWDIN ATOMIC CHARGES
----------------------
   0 C :   -0.150595
   1 C :    0.000922
   2 C :   -0.138633
   3 C :   -0.099325
   4 C :   -0.150661
   5 C :   -0.067978
   6 N :   -0.068316
   7 H :    0.133523
   8 H :    0.133893
   9 H :    0.134822
  10 H :    0.121726
  11 C :    0.000874
  12 C :   -0.138637
  13 C :   -0.099370
  14 C :   -0.068029
  15 N :   -0.068234
  16 H :    0.133551
  17 H :    0.133917
  18 H :    0.134805
  19 H :    0.121744

  Mayer bond orders larger than 0.100000
B(  0-C , 13-C ) :   1.4237 B(  0-C , 14-C ) :   1.3717 B(  0-C , 18-H ) :   0.9495
B(  1-C ,  2-C ) :   1.3938 B(  1-C ,  6-N ) :   1.5409 B(  1-C , 11-C ) :   0.9667
B(  2-C ,  3-C ) :   1.4239 B(  2-C ,  7-H ) :   0.9378 B(  3-C ,  4-C ) :   1.4238
B(  3-C ,  8-H ) :   0.9561 B(  4-C ,  5-C ) :   1.3718 B(  4-C ,  9-H ) :   0.9493
B(  5-C ,  6-N ) :   1.5292 B(  5-C , 10-H ) :   0.9524 B( 11-C , 12-C ) :   1.3940
B( 11-C , 15-N ) :   1.5413 B( 12-C , 13-C ) :   1.4240 B( 12-C , 16-H ) :   0.9376
B( 13-C , 17-H ) :   0.9560 B( 14-C , 15-N ) :   1.5291 B( 14-C , 19-H ) :   0.9524

Dispersion correction           -0.020561974
FINAL SINGLE POINT ENERGY      -494.443343999440

DIPOLE MOMENT
-------------

Method             : SCF
Type of density    : Electron Density
Multiplicity       :   1
Irrep              :   0
Energy             :  -494.4227820257638086 Eh
Relativity type    :
Basis              : AO
                                X                 Y                 Z
Electronic contribution:     -2.230424104      -0.570734920      -0.093166370
Nuclear contribution   :      3.378460210       0.864564887       0.140838942
                        -----------------------------------------
Total Dipole Moment    :      1.148036106       0.293829966       0.047672572
                        -----------------------------------------
Magnitude (a.u.)       :      1.185999841
Magnitude (Debye)      :      3.014572024

VIBRATIONAL FREQUENCIES
-----------------------

Scaling factor for frequencies =  1.000000000  (already applied!)

     0:       0.00 cm**-1
     1:       0.00 cm**-1
     2:       0.00 cm**-1
     3:       0.00 cm**-1
     4:       0.00 cm**-1
     5:       0.00 cm**-1
     6:      53.96 cm**-1
     7:      92.20 cm**-1
     8:     131.85 cm**-1
     9:     249.56 cm**-1
    10:     326.93 cm**-1
    11:     380.74 cm**-1
    12:     420.20 cm**-1
    13:     421.50 cm**-1
    14:     500.60 cm**-1
    15:     573.78 cm**-1
    16:     618.20 cm**-1
    17:     635.82 cm**-1
    18:     671.57 cm**-1
    19:     763.65 cm**-1
    20:     768.34 cm**-1
    21:     783.76 cm**-1
    22:     792.32 cm**-1
    23:     851.80 cm**-1
    24:     915.05 cm**-1
    25:     920.60 cm**-1
    26:     989.40 cm**-1
    27:     993.45 cm**-1
    28:    1016.72 cm**-1
    29:    1019.39 cm**-1
    30:    1024.11 cm**-1
    31:    1024.41 cm**-1
    32:    1069.18 cm**-1
    33:    1086.52 cm**-1
    34:    1105.35 cm**-1
    35:    1121.75 cm**-1
    36:    1136.86 cm**-1
    37:    1164.09 cm**-1
    38:    1171.98 cm**-1
    39:    1299.08 cm**-1
    40:    1334.24 cm**-1
    41:    1348.57 cm**-1
    42:    1366.81 cm**-1
    43:    1379.35 cm**-1
    44:    1469.65 cm**-1
    45:    1482.60 cm**-1
    46:    1520.21 cm**-1
    47:    1548.57 cm**-1
    48:    1655.26 cm**-1
    49:    1668.41 cm**-1
    50:    1681.46 cm**-1
    51:    1683.22 cm**-1
    52:    3169.65 cm**-1
    53:    3170.08 cm**-1
    54:    3200.55 cm**-1
    55:    3201.79 cm**-1
    56:    3216.68 cm**-1
    57:    3220.24 cm**-1
    58:    3224.74 cm**-1
    59:    3226.17 cm**-1

IR SPECTRUM
-----------

 Mode   freq       eps      Int      T**2         TX        TY        TZ
       cm**-1   L/(mol*cm) km/mol    a.u.
----------------------------------------------------------------------------
  6:     53.96   0.000010    0.05  0.000058  ( 0.007432  0.001543  0.000272)
  7:     92.20   0.000638    3.23  0.002160  ( 0.011637 -0.044466 -0.006874)
  8:    131.85   0.000387    1.95  0.000915  ( 0.029289  0.007492  0.001156)
  9:    249.56   0.000048    0.24  0.000059  ( 0.007470  0.001886  0.000281)
 10:    326.93   0.000001    0.00  0.000001  (-0.000763 -0.000200 -0.000011)
 11:    380.74   0.000292    1.47  0.000239  (-0.002918  0.009517  0.011830)
 12:    420.20   0.000909    4.59  0.000675  ( 0.005626 -0.025047 -0.004027)
 13:    421.50   0.000098    0.49  0.000072  (-0.008442  0.000988  0.000131)
 14:    500.60   0.000345    1.74  0.000215  ( 0.003404 -0.014033  0.002581)
 15:    573.78   0.000163    0.82  0.000089  ( 0.009120  0.002307  0.000354)
 16:    618.20   0.001026    5.18  0.000518  ( 0.001695 -0.009724  0.020504)
 17:    635.82   0.000973    4.92  0.000478  (-0.021155 -0.005427 -0.000877)
 18:    671.57   0.002351   11.88  0.001093  ( 0.001099  0.001090 -0.033020)
 19:    763.65   0.000991    5.01  0.000405  ( 0.019220  0.005914  0.000824)
 20:    768.34   0.011722   59.24  0.004761  (-0.017476  0.066735  0.001427)
 21:    783.76   0.005214   26.35  0.002076  (-0.011208  0.044098  0.002448)
 22:    792.32   0.000044    0.22  0.000017  (-0.004029 -0.000957 -0.000166)
 23:    851.80   0.000439    2.22  0.000161  (-0.012310 -0.002990 -0.000526)
 24:    915.05   0.000090    0.46  0.000031  ( 0.001281 -0.005364  0.000570)
 25:    920.60   0.000071    0.36  0.000024  (-0.004780 -0.001128 -0.000188)
 26:    989.40   0.000016    0.08  0.000005  (-0.000381  0.001645 -0.001440)
 27:    993.45   0.000035    0.17  0.000011  ( 0.003198  0.000785  0.000119)
 28:   1016.72   0.001040    5.26  0.000319  (-0.001597  0.007540 -0.016119)
 29:   1019.39   0.001360    6.87  0.000416  ( 0.019735  0.005137  0.000630)
 30:   1024.11   0.000170    0.86  0.000052  ( 0.006839  0.002242 -0.000202)
 31:   1024.41   0.000032    0.16  0.000010  ( 0.002859 -0.000425  0.001171)
 32:   1069.18   0.000805    4.07  0.000235  (-0.000315  0.003658 -0.014878)
 33:   1086.52   0.000893    4.51  0.000257  (-0.015505 -0.003962 -0.000673)
 34:   1105.35   0.000107    0.54  0.000030  ( 0.001012 -0.004631  0.002801)
 35:   1121.75   0.000932    4.71  0.000259  ( 0.015581  0.004027  0.000622)
 36:   1136.86   0.001214    6.14  0.000333  ( 0.000451  0.001286 -0.018206)
 37:   1164.09   0.000599    3.03  0.000160  (-0.000994  0.002012  0.012468)
 38:   1171.98   0.000629    3.18  0.000168  ( 0.012524  0.003220  0.000551)
 39:   1299.08   0.000025    0.13  0.000006  (-0.002376 -0.000604 -0.000086)
 40:   1334.24   0.000076    0.38  0.000018  (-0.000193  0.001345 -0.003989)
 41:   1348.57   0.000002    0.01  0.000000  ( 0.000587  0.000156  0.000029)
 42:   1366.81   0.000992    5.01  0.000226  (-0.000183 -0.001859  0.014932)
 43:   1379.35   0.000002    0.01  0.000000  ( 0.000570  0.000148 -0.000075)
 44:   1469.65   0.001581    7.99  0.000336  ( 0.017727  0.004559  0.000768)
 45:   1482.60   0.011559   58.41  0.002433  ( 0.003426 -0.005239 -0.048926)
 46:   1520.21   0.005375   27.16  0.001103  (-0.000875 -0.002079  0.033139)
 47:   1548.57   0.000683    3.45  0.000138  (-0.011359 -0.002903 -0.000520)
 48:   1655.26   0.009059   45.78  0.001708  (-0.040016 -0.010184 -0.001691)
 49:   1668.41   0.001253    6.33  0.000234  (-0.002455  0.012128 -0.009016)
 50:   1681.46   0.000034    0.17  0.000006  (-0.002210 -0.000567  0.001050)
 51:   1683.22   0.017110   86.46  0.003172  ( 0.001947  0.001233 -0.056274)
 52:   3169.65   0.005279   26.68  0.000520  (-0.003169  0.005532  0.021889)
 53:   3170.08   0.004752   24.02  0.000468  (-0.020832 -0.005586 -0.001627)
 54:   3200.55   0.000784    3.96  0.000076  (-0.001296  0.002759 -0.008196)
 55:   3201.79   0.001341    6.77  0.000131  (-0.011004 -0.003088  0.000141)
 56:   3216.68   0.002231   11.28  0.000216  (-0.001604  0.003547  0.014188)
 57:   3220.24   0.000887    4.48  0.000086  (-0.008947 -0.002311 -0.000718)
 58:   3224.74   0.002636   13.32  0.000255  (-0.000352 -0.001770  0.015868)
 59:   3226.17   0.000550    2.78  0.000053  ( 0.007039  0.001858  0.000395)

--------------------------
THERMOCHEMISTRY AT 298.15K
--------------------------

Temperature         ...   298.15 K
Pressure            ...     1.00 atm
Total Mass          ...   156.19 AMU
Quasi RRHO          ...     True
Cut-Off Frequency   ...     1.00 cm^-1

Throughout the following assumptions are being made:
  (1) The electronic state is orbitally nondegenerate
  (2) There are no thermally accessible electronically excited states
  (3) Hindered rotations indicated by low frequency modes are not
      treated as such but are treated as vibrations and this may
      cause some error
  (4) All equations used are the standard statistical mechanics
      equations for an ideal gas
  (5) All vibrations are strictly harmonic

freq.      53.96  E(vib)   ...       0.52
freq.      92.20  E(vib)   ...       0.47
freq.     131.85  E(vib)   ...       0.42
freq.     249.56  E(vib)   ...       0.31
freq.     326.93  E(vib)   ...       0.24
freq.     380.74  E(vib)   ...       0.21
freq.     420.20  E(vib)   ...       0.18
freq.     421.50  E(vib)   ...       0.18
freq.     500.60  E(vib)   ...       0.14
freq.     573.78  E(vib)   ...       0.11
freq.     618.20  E(vib)   ...       0.09
freq.     635.82  E(vib)   ...       0.09
freq.     671.57  E(vib)   ...       0.08
freq.     763.65  E(vib)   ...       0.06
freq.     768.34  E(vib)   ...       0.06
freq.     783.76  E(vib)   ...       0.05
freq.     792.32  E(vib)   ...       0.05
freq.     851.80  E(vib)   ...       0.04
freq.     915.05  E(vib)   ...       0.03
freq.     920.60  E(vib)   ...       0.03
freq.     989.40  E(vib)   ...       0.02
freq.     993.45  E(vib)   ...       0.02
freq.    1016.72  E(vib)   ...       0.02
freq.    1019.39  E(vib)   ...       0.02
freq.    1024.11  E(vib)   ...       0.02
freq.    1024.41  E(vib)   ...       0.02
freq.    1069.18  E(vib)   ...       0.02
freq.    1086.52  E(vib)   ...       0.02
freq.    1105.35  E(vib)   ...       0.02
freq.    1121.75  E(vib)   ...       0.01
freq.    1136.86  E(vib)   ...       0.01
freq.    1164.09  E(vib)   ...       0.01
freq.    1171.98  E(vib)   ...       0.01
freq.    1299.08  E(vib)   ...       0.01
freq.    1334.24  E(vib)   ...       0.01
freq.    1348.57  E(vib)   ...       0.01
freq.    1366.81  E(vib)   ...       0.01
freq.    1379.35  E(vib)   ...       0.01
freq.    1469.65  E(vib)   ...       0.00
freq.    1482.60  E(vib)   ...       0.00
freq.    1520.21  E(vib)   ...       0.00
freq.    1548.57  E(vib)   ...       0.00
freq.    1655.26  E(vib)   ...       0.00
freq.    1668.41  E(vib)   ...       0.00
freq.    1681.46  E(vib)   ...       0.00
freq.    1683.22  E(vib)   ...       0.00
freq.    3169.65  E(vib)   ...       0.00
freq.    3170.08  E(vib)   ...       0.00
freq.    3200.55  E(vib)   ...       0.00
freq.    3201.79  E(vib)   ...       0.00
freq.    3216.68  E(vib)   ...       0.00
freq.    3220.24  E(vib)   ...       0.00
freq.    3224.74  E(vib)   ...       0.00
freq.    3226.17  E(vib)   ...       0.00

------------
INNER ENERGY
------------

The inner energy is: U= E(el) + E(ZPE) + E(vib) + E(rot) + E(trans)
    E(el)   - is the total energy from the electronic structure calculation
              = E(kin-el) + E(nuc-el) + E(el-el) + E(nuc-nuc)
    E(ZPE)  - the the zero temperature vibrational energy from the frequency calculation
    E(vib)  - the the finite temperature correction to E(ZPE) due to population
              of excited vibrational states
    E(rot)  - is the rotational thermal energy
    E(trans)- is the translational thermal energy

Summary of contributions to the inner energy U:
Electronic energy                ...   -494.44334400 Eh
Zero point energy                ...      0.15915954 Eh      99.87 kcal/mol
Thermal vibrational correction   ...      0.00580542 Eh       3.64 kcal/mol
Thermal rotational correction    ...      0.00141627 Eh       0.89 kcal/mol
Thermal translational correction ...      0.00141627 Eh       0.89 kcal/mol
-----------------------------------------------------------------------
Total thermal energy                   -494.27554650 Eh

Summary of corrections to the electronic energy:
(perhaps to be used in another calculation)
Total thermal correction                  0.00863797 Eh       5.42 kcal/mol
Non-thermal (ZPE) correction              0.15915954 Eh      99.87 kcal/mol
-----------------------------------------------------------------------
Total correction                          0.16779750 Eh     105.29 kcal/mol

--------
ENTHALPY
--------

The enthalpy is H = U + kB*T
                kB is Boltzmann's constant
Total thermal energy              ...   -494.27554650 Eh
Thermal Enthalpy correction       ...      0.00094421 Eh       0.59 kcal/mol
-----------------------------------------------------------------------
Total Enthalpy                    ...   -494.27460229 Eh

Note: Only C1 symmetry has been detected, increase convergence thresholds
      if your molecule has a higher symmetry. Symmetry factor of 1.0 is
      used for the rotational entropy correction.

Note: Rotational entropy computed according to Herzberg
Infrared and Raman Spectra, Chapter V,1, Van Nostrand Reinhold, 1945
Point Group:  C1, Symmetry Number:   1
Rotational constants in cm-1:     0.098656     0.019232     0.016535

Vibrational entropy computed according to the QRRHO of S. Grimme
Chem.Eur.J. 2012 18 9955 using a reference frequency of 100.0 cm-1

-------
ENTROPY
-------

The entropy contributions are T*S = T*(S(el)+S(vib)+S(rot)+S(trans))
     S(el)   - electronic entropy
     S(vib)  - vibrational entropy
     S(rot)  - rotational entropy
     S(trans)- translational entropy
The entropies will be listed as multiplied by the temperature to get
units of energy

Electronic entropy                ...      0.00000000 Eh      0.00 kcal/mol
Vibrational entropy               ...      0.00960945 Eh      6.03 kcal/mol
Rotational entropy                ...      0.01440618 Eh      9.04 kcal/mol
Translational entropy             ...      0.01950274 Eh     12.24 kcal/mol
-----------------------------------------------------------------------
Final entropy term                ...      0.04351838 Eh     27.31 kcal/mol

In case the symmetry of your molecule has not been determined correctly
or in case you have a reason to use a different symmetry number we print
out the resulting rotational entropy values for sn=1,12:

 non-linear molecules -----------------------------------
|  sn= 1 | S(rot)=       0.01440618 Eh      9.04 kcal/mol|
|  sn= 2 | S(rot)=       0.01375173 Eh      8.63 kcal/mol|
|  sn= 3 | S(rot)=       0.01336890 Eh      8.39 kcal/mol|
|  sn= 4 | S(rot)=       0.01309727 Eh      8.22 kcal/mol|
|  sn= 5 | S(rot)=       0.01288658 Eh      8.09 kcal/mol|
|  sn= 6 | S(rot)=       0.01271444 Eh      7.98 kcal/mol|

                             ****ORCA TERMINATED NORMALLY****
TOTAL RUN TIME: 0 days 0 hours 12 minutes 57 seconds 514 msec
