                         Program Version 6.0.0  -   RELEASE  -
|  1> !B3LYP aug-cc-pVTZ d3 TightSCF SlowConv RIJCOSX defgrid2
|  2>
|  3> %pal
|  4> nprocs 4
|  5> end
|  6>
|  7> %scf
|  8> MaxIter 1500
|  9> end
| 10>
| 11> %maxcore 3000
| 12>
| 13> !CPCM
| 14> %cpcm smd true
| 15> SMDsolvent "MeCN"
| 16> surfacetype gepol_ses
| 17> rsolv 2.19
| 18> end
| 19>
| 20> * xyz 0 1
| 21> C          -1.91227700743169     -0.69599807376451      0.00000859287457
| 22> C          -0.69912772414042     -1.38283601323851     -0.00000932512484
| 23> C           0.52347537335926     -0.70523730282103     -0.00001246655685
| 24> C           1.81729612506468     -1.46787011445991     -0.00005598554550
| 25> H           2.43257350979539     -1.22714923235884      0.88628677084497
| 26> H           1.63908285531001     -2.55536142781918      0.00004381576691
| 27> H           2.43241809059381     -1.22729433644522     -0.88654856025073
| 28> C           0.52347672072489      0.70522172319425      0.00000174792219
| 29> C           1.81729888680216      1.46785238267187     -0.00000613025126
| 30> H           2.43252823855944      1.22714967649232     -0.88638787088621
| 31> H           1.63908599746497      2.55534328050588     -0.00007448538319
| 32> H           2.43246782760812      1.22725777649857      0.88644905711652
| 33> C          -0.69912402686095      1.38282421177654      0.00001495362970
| 34> C          -1.91227492778965      0.69598941815697      0.00001994929433
| 35> H          -2.85546951493968      1.25047213510866      0.00003288713645
| 36> H          -0.69794916863420      2.47800578637616      0.00002276384868
| 37> H          -0.69795562041832     -2.47801791250149     -0.00001864212487
| 38> H          -2.85547323506782     -1.25047877737254      0.00001362768912
| 39> *
| 40>
| 41>                          ****END OF INPUT****

CARTESIAN COORDINATES (ANGSTROEM)
---------------------------------
  C     -1.912277   -0.695998    0.000009
  C     -0.699128   -1.382836   -0.000009
  C      0.523475   -0.705237   -0.000012
  C      1.817296   -1.467870   -0.000056
  H      2.432574   -1.227149    0.886287
  H      1.639083   -2.555361    0.000044
  H      2.432418   -1.227294   -0.886549
  C      0.523477    0.705222    0.000002
  C      1.817299    1.467852   -0.000006
  H      2.432528    1.227150   -0.886388
  H      1.639086    2.555343   -0.000074
  H      2.432468    1.227258    0.886449
  C     -0.699124    1.382824    0.000015
  C     -1.912275    0.695989    0.000020
  H     -2.855470    1.250472    0.000033
  H     -0.697949    2.478006    0.000023
  H     -0.697956   -2.478018   -0.000019
  H     -2.855473   -1.250479    0.000014

 Total Charge           Charge          ....    0
 Multiplicity           Mult            ....    1
 Number of Electrons    NEL             ....   58
 Basis Dimension        Dim             ....  598

ORBITAL ENERGIES
----------------

  NO   OCC          E(Eh)            E(eV)
   0   2.0000     -10.179106      -276.9876
   1   2.0000     -10.178570      -276.9730
   2   2.0000     -10.169655      -276.7304
   3   2.0000     -10.169108      -276.7155
   4   2.0000     -10.168401      -276.6963
   5   2.0000     -10.168374      -276.6955
   6   2.0000     -10.161499      -276.5084
   7   2.0000     -10.161477      -276.5078
   8   2.0000      -0.856448       -23.3051
   9   2.0000      -0.772293       -21.0152
  10   2.0000      -0.756860       -20.5952
  11   2.0000      -0.689001       -18.7487
  12   2.0000      -0.664913       -18.0932
  13   2.0000      -0.589859       -16.0509
  14   2.0000      -0.566613       -15.4183
  15   2.0000      -0.493085       -13.4175
  16   2.0000      -0.466318       -12.6892
  17   2.0000      -0.438376       -11.9288
  18   2.0000      -0.426846       -11.6151
  19   2.0000      -0.405823       -11.0430
  20   2.0000      -0.397772       -10.8239
  21   2.0000      -0.388467       -10.5707
  22   2.0000      -0.375657       -10.2221
  23   2.0000      -0.375197       -10.2096
  24   2.0000      -0.349418        -9.5082
  25   2.0000      -0.329836        -8.9753
  26   2.0000      -0.329687        -8.9712
  27   2.0000      -0.248179        -6.7533
  28   2.0000      -0.238036        -6.4773
  29   0.0000      -0.009182        -0.2498
  30   0.0000      -0.007677        -0.2089
  31   0.0000      -0.003308        -0.0900
  32   0.0000       0.008063         0.2194
  33   0.0000       0.012316         0.3351

MULLIKEN ATOMIC CHARGES
-----------------------
   0 C :   -0.284413
   1 C :   -1.016912
   2 C :    0.939474
   3 C :   -0.727257
   4 H :    0.222753
   5 H :    0.099906
   6 H :    0.223211
   7 C :    0.941580
   8 C :   -0.729281
   9 H :    0.222557
  10 H :    0.101414
  11 H :    0.222108
  12 C :   -1.019177
  13 C :   -0.281003
  14 H :    0.605651
  15 H :   -0.064373
  16 H :   -0.064450
  17 H :    0.608211
Sum of atomic charges:    0.0000000

LOEWDIN ATOMIC CHARGES
----------------------
   0 C :    0.175556
   1 C :    0.196511
   2 C :   -0.120534
   3 C :    0.561988
   4 H :   -0.153020
   5 H :   -0.165373
   6 H :   -0.152971
   7 C :   -0.120535
   8 C :    0.561986
   9 H :   -0.152977
  10 H :   -0.165373
  11 H :   -0.153014
  12 C :    0.196509
  13 C :    0.175558
  14 H :   -0.173144
  15 H :   -0.169012
  16 H :   -0.169011
  17 H :   -0.173143

  Mayer bond orders larger than 0.100000
B(  0-C ,  1-C ) :   0.9988 B(  0-C ,  2-C ) :   0.1208 B(  0-C , 12-C ) :  -0.1152
B(  0-C , 13-C ) :   0.9652 B(  0-C , 17-H ) :   0.4626 B(  1-C ,  2-C ) :   0.5410
B(  1-C ,  7-C ) :  -0.1207 B(  1-C , 12-C ) :   0.1699 B(  1-C , 13-C ) :  -0.1194
B(  1-C , 16-H ) :   1.5461 B(  1-C , 17-H ) :  -0.1494 B(  2-C ,  3-C ) :   0.2151
B(  2-C ,  7-C ) :   1.2044 B(  2-C ,  8-C ) :   0.1544 B(  2-C , 12-C ) :  -0.1238
B(  2-C , 16-H ) :  -0.1506 B(  3-C ,  4-H ) :   0.9961 B(  3-C ,  5-H ) :   1.0596
B(  3-C ,  6-H ) :   0.9953 B(  3-C ,  7-C ) :   0.1510 B(  7-C ,  8-C ) :   0.2155
B(  7-C , 12-C ) :   0.5353 B(  7-C , 13-C ) :   0.1227 B(  7-C , 15-H ) :  -0.1532
B(  8-C ,  9-H ) :   0.9958 B(  8-C , 10-H ) :   1.0588 B(  8-C , 11-H ) :   0.9974
B( 12-C , 13-C ) :   0.9963 B( 12-C , 14-H ) :  -0.1502 B( 12-C , 15-H ) :   1.5466
B( 13-C , 14-H ) :   0.4663

Dispersion correction           -0.030480200
FINAL SINGLE POINT ENERGY      -310.823765716417

DIPOLE MOMENT
-------------

Method             : SCF
Type of density    : Electron Density
Multiplicity       :   1
Irrep              :   0
Energy             :  -310.7932855159370433 Eh
Relativity type    :
Basis              : AO
                                X                 Y                 Z
Electronic contribution:     -5.175582067       0.000009330      -0.000529250
Nuclear contribution   :      5.585292942      -0.000004943      -0.000112342
                        -----------------------------------------
Total Dipole Moment    :      0.409710875       0.000004387      -0.000641592
                        -----------------------------------------
Magnitude (a.u.)       :      0.409711378
Magnitude (Debye)      :      1.041403560

Rotational constants in cm-1:             0.105881             0.071625             0.043421
Rotational constants in MHz :          3174.222662          2147.253088          1301.724728

                             ****ORCA TERMINATED NORMALLY****
TOTAL RUN TIME: 0 days 0 hours 5 minutes 22 seconds 651 msec
