                         Program Version 6.0.0  -   RELEASE  -
|  1> !PBE0 opt def2-SV(p) d3 TightSCF SlowConv RIJCOSX defgrid2
|  2>
|  3> %pal
|  4> nprocs 8
|  5> end
|  6>
|  7> %scf
|  8> MaxIter 1500
|  9> end
| 10>
| 11> %maxcore 3500
| 12>
| 13> !CPCM
| 14> %cpcm smd true
| 15> SMDsolvent "MeCN"
| 16> surfacetype gepol_ses
| 17> rsolv 2.19
| 18> end
| 19>
| 20> * xyz 0 1
| 21> C          -1.20884186796781     -0.02278058914418      0.00003742233159
| 22> C          -1.20709913160620      1.38045218788773      0.00016703364523
| 23> C           0.00003556987027      2.07238258705511      0.00002257197541
| 24> C           1.20714414585697      1.38040506278913     -0.00023783478174
| 25> C           1.20883517896309     -0.02282737272555     -0.00031075934043
| 26> C          -0.00001674938231     -0.72722788932514     -0.00021243594479
| 27> H          -0.00003875372447     -1.81890955720448     -0.00030359455707
| 28> C           2.45039282749013     -0.73822162648839     -0.00031862016213
| 29> N           3.45665781045797     -1.31294485312421      0.00119491286029
| 30> H           2.15765649045058      1.91893621365633     -0.00034701835738
| 31> H           0.00005970442079      3.16546819660540      0.00011390445176
| 32> H          -2.15759482922730      1.91901494079977      0.00036663554396
| 33> C          -2.45042247590246     -0.73813543850926      0.00010406543100
| 34> N          -3.45670371969924     -1.31283236227226     -0.00021618309569
| 35> *
| 36>
| 37>                          ****END OF INPUT****
 Total Charge           Charge          ....    0
 Multiplicity           Mult            ....    1
 Number of Electrons    NEL             ....   66
Dispersion correction           -0.014198031
FINAL SINGLE POINT ENERGY      -415.953024651258
Dispersion correction             ... done (  0.1 sec)
Dispersion correction           -0.014204907
FINAL SINGLE POINT ENERGY      -415.953066547173
Dispersion correction             ... done (  0.1 sec)
Dispersion correction           -0.014208230
FINAL SINGLE POINT ENERGY      -415.953077041846
Dispersion correction             ... done (  0.1 sec)
                    ***********************HURRAY********************

CARTESIAN COORDINATES (ANGSTROEM)
---------------------------------
  C     -1.204936   -0.022831    0.000140
  C     -1.206885    1.381036    0.000432
  C      0.000033    2.073082    0.000022
  C      1.206926    1.380995   -0.000494
  C      1.204937   -0.022872   -0.000373
  C     -0.000012   -0.733027   -0.000191
  H     -0.000032   -1.824293   -0.000294
  C      2.444787   -0.737780   -0.000172
  N      3.451042   -1.313057    0.001345
  H      2.155066    1.923188   -0.000618
  H      0.000053    3.165696    0.000096
  H     -2.155007    1.923260    0.000633
  C     -2.444814   -0.737691   -0.000012
  N     -3.451094   -1.312925   -0.000454

 Multiplicity           Mult            ....    1
 Number of Electrons    NEL             ....   66
 Basis Dimension        Dim             ....  148

ORBITAL ENERGIES
----------------

  NO   OCC          E(Eh)            E(eV)
   0   2.0000     -14.407149      -392.0384
   1   2.0000     -14.407141      -392.0382
   2   2.0000     -10.297785      -280.2170
   3   2.0000     -10.297755      -280.2162
   4   2.0000     -10.294246      -280.1207
   5   2.0000     -10.294224      -280.1201
   6   2.0000     -10.280797      -279.7547
   7   2.0000     -10.273174      -279.5473
   8   2.0000     -10.273157      -279.5468
   9   2.0000     -10.260955      -279.2148
  10   2.0000      -0.946401       -25.7529
  11   2.0000      -0.940290       -25.5866
  12   2.0000      -0.912069       -24.8187
  13   2.0000      -0.824235       -22.4286
  14   2.0000      -0.805562       -21.9205
  15   2.0000      -0.685633       -18.6570
  16   2.0000      -0.681449       -18.5432
  17   2.0000      -0.613800       -16.7023
  18   2.0000      -0.526437       -14.3251
  19   2.0000      -0.524437       -14.2707
  20   2.0000      -0.512833       -13.9549
  21   2.0000      -0.468435       -12.7468
  22   2.0000      -0.444901       -12.1064
  23   2.0000      -0.413644       -11.2558
  24   2.0000      -0.407985       -11.1018
  25   2.0000      -0.404207       -10.9990
  26   2.0000      -0.396349       -10.7852
  27   2.0000      -0.392474       -10.6798
  28   2.0000      -0.366980        -9.9860
  29   2.0000      -0.366303        -9.9676
  30   2.0000      -0.365091        -9.9346
  31   2.0000      -0.296787        -8.0760
  32   2.0000      -0.291928        -7.9438
  33   0.0000      -0.069585        -1.8935
  34   0.0000      -0.052648        -1.4326
  35   0.0000       0.019999         0.5442
  36   0.0000       0.035630         0.9695
  37   0.0000       0.043300         1.1783

MULLIKEN ATOMIC CHARGES
-----------------------
   0 C :   -0.102258
   1 C :   -0.052116
   2 C :   -0.102185
   3 C :   -0.052118
   4 C :   -0.102257
   5 C :   -0.057356
   6 H :    0.153376
   7 C :   -0.004579
   8 N :   -0.064480
   9 H :    0.149196
  10 H :    0.154642
  11 H :    0.149197
  12 C :   -0.004579
  13 N :   -0.064483
Sum of atomic charges:   -0.0000000

LOEWDIN ATOMIC CHARGES
----------------------
   0 C :   -0.084841
   1 C :   -0.060649
   2 C :   -0.109463
   3 C :   -0.060648
   4 C :   -0.084841
   5 C :   -0.044933
   6 H :    0.171333
   7 C :    0.013025
   8 N :   -0.122253
   9 H :    0.165487
  10 H :    0.161523
  11 H :    0.165487
  12 C :    0.013025
  13 N :   -0.122253

  Mayer bond orders larger than 0.100000
B(  0-C ,  1-C ) :   1.3496 B(  0-C ,  5-C ) :   1.3544 B(  0-C , 12-C ) :   1.0751
B(  1-C ,  2-C ) :   1.3800 B(  1-C , 11-H ) :   0.9601 B(  2-C ,  3-C ) :   1.3800
B(  2-C , 10-H ) :   0.9566 B(  3-C ,  4-C ) :   1.3496 B(  3-C ,  9-H ) :   0.9601
B(  4-C ,  5-C ) :   1.3544 B(  4-C ,  7-C ) :   1.0751 B(  5-C ,  6-H ) :   0.9582
B(  7-C ,  8-N ) :   2.9909 B( 12-C , 13-N ) :   2.9909

Dispersion correction           -0.014207855
FINAL SINGLE POINT ENERGY      -415.953078380423

DIPOLE MOMENT
-------------

Method             : SCF
Type of density    : Electron Density
Multiplicity       :   1
Irrep              :   0
Energy             :  -415.9388705250738667 Eh
Relativity type    :
Basis              : AO
                                X                 Y                 Z
Electronic contribution:     -0.000036135      -2.652505130      -0.000517352
Nuclear contribution   :      0.000081027       4.868914164      -0.000299247
                        -----------------------------------------
Total Dipole Moment    :      0.000044892       2.216409034      -0.000816599
                        -----------------------------------------
Magnitude (a.u.)       :      2.216409185
Magnitude (Debye)      :      5.633664433

Rotational constants in cm-1:             0.090545             0.030295             0.022700
Rotational constants in MHz :          2714.465934           908.213940           680.522731

                             ****ORCA TERMINATED NORMALLY****
TOTAL RUN TIME: 0 days 0 hours 4 minutes 10 seconds 371 msec
