                         Program Version 6.0.0  -   RELEASE  -
|  1> !PBE0 freq aug-cc-pVTZ d3 TightSCF SlowConv RIJCOSX defgrid2
|  2>
|  3> %pal
|  4> nprocs 12
|  5> end
|  6>
|  7> %scf
|  8> MaxIter 1500
|  9> end
| 10>
| 11> %maxcore 5000
| 12>
| 13> !CPCM
| 14> %cpcm smd true
| 15> SMDsolvent "MeCN"
| 16> surfacetype gepol_ses
| 17> rsolv 2.19
| 18> end
| 19>
| 20> * xyz 0 1
| 21> C          -1.19502699863960     -0.01949755275563      0.00012549319581
| 22> C          -1.19992852228543      1.37598903587222      0.00041741305124
| 23> C           0.00003936697167      2.06474932441758      0.00001930673042
| 24> C           1.19997232295107      1.37592821011447     -0.00048367064602
| 25> C           1.19500924601709     -0.01955426839895     -0.00036506032879
| 26> C          -0.00002511325134     -0.72928410222928     -0.00020028907560
| 27> H          -0.00004954685263     -1.81026939568422     -0.00030166806502
| 28> C           2.43020971257624     -0.73031750642671     -0.00016494698539
| 29> N           3.43022110594753     -1.30092539298517      0.00130545183879
| 30> H           2.14045738282756      1.91029704338757     -0.00056051002507
| 31> H           0.00006607316968      3.14634908739695      0.00009995066039
| 32> H          -2.14038843820062      1.91040198900094      0.00057646859979
| 33> C          -2.43024163318240     -0.73023687038695     -0.00000093803281
| 34> N          -3.43025075804882     -1.30085010132283     -0.00040690091774
| 35> *
| 36>
| 37>                          ****END OF INPUT****

CARTESIAN COORDINATES (ANGSTROEM)
---------------------------------
  C     -1.195027   -0.019498    0.000125
  C     -1.199929    1.375989    0.000417
  C      0.000039    2.064749    0.000019
  C      1.199972    1.375928   -0.000484
  C      1.195009   -0.019554   -0.000365
  C     -0.000025   -0.729284   -0.000200
  H     -0.000050   -1.810269   -0.000302
  C      2.430210   -0.730318   -0.000165
  N      3.430221   -1.300925    0.001305
  H      2.140457    1.910297   -0.000561
  H      0.000066    3.146349    0.000100
  H     -2.140388    1.910402    0.000576
  C     -2.430242   -0.730237   -0.000001
  N     -3.430251   -1.300850   -0.000407

 Total Charge           Charge          ....    0
 Multiplicity           Mult            ....    1
 Number of Electrons    NEL             ....   66
 Basis Dimension        Dim             ....  552

ORBITAL ENERGIES
----------------

  NO   OCC          E(Eh)            E(eV)
   0   2.0000     -14.400489      -391.8572
   1   2.0000     -14.400486      -391.8571
   2   2.0000     -10.289851      -280.0011
   3   2.0000     -10.289830      -280.0005
   4   2.0000     -10.284409      -279.8530
   5   2.0000     -10.284401      -279.8528
   6   2.0000     -10.273546      -279.5574
   7   2.0000     -10.265611      -279.3415
   8   2.0000     -10.265582      -279.3407
   9   2.0000     -10.253208      -279.0040
  10   2.0000      -0.961239       -26.1566
  11   2.0000      -0.955912       -26.0117
  12   2.0000      -0.924082       -25.1455
  13   2.0000      -0.834146       -22.6983
  14   2.0000      -0.815548       -22.1922
  15   2.0000      -0.692553       -18.8453
  16   2.0000      -0.688080       -18.7236
  17   2.0000      -0.618232       -16.8229
  18   2.0000      -0.530059       -14.4236
  19   2.0000      -0.525585       -14.3019
  20   2.0000      -0.513888       -13.9836
  21   2.0000      -0.469135       -12.7658
  22   2.0000      -0.448019       -12.1912
  23   2.0000      -0.416446       -11.3321
  24   2.0000      -0.412609       -11.2277
  25   2.0000      -0.407797       -11.0967
  26   2.0000      -0.400670       -10.9028
  27   2.0000      -0.396285       -10.7835
  28   2.0000      -0.370238       -10.0747
  29   2.0000      -0.368729       -10.0336
  30   2.0000      -0.368491       -10.0272
  31   2.0000      -0.297739        -8.1019
  32   2.0000      -0.293240        -7.9795
  33   0.0000      -0.071388        -1.9426
  34   0.0000      -0.055466        -1.5093
  35   0.0000      -0.000869        -0.0236
  36   0.0000       0.012509         0.3404
  37   0.0000       0.016363         0.4453

MULLIKEN ATOMIC CHARGES
-----------------------
   0 C :    1.150579
   1 C :   -0.802717
   2 C :   -0.597061
   3 C :   -0.803766
   4 C :    1.153108
   5 C :   -0.909153
   6 H :    0.161724
   7 C :    0.500164
   8 N :   -0.809291
   9 H :    0.276582
  10 H :    0.712592
  11 H :    0.276688
  12 C :    0.499135
  13 N :   -0.808583
Sum of atomic charges:   -0.0000000

LOEWDIN ATOMIC CHARGES
----------------------
   0 C :   -0.185658
   1 C :    0.232613
   2 C :    0.243688
   3 C :    0.232604
   4 C :   -0.185658
   5 C :    0.222133
   6 H :   -0.142615
   7 C :   -0.239067
   8 N :    0.256045
   9 H :   -0.147871
  10 H :   -0.155316
  11 H :   -0.147870
  12 C :   -0.239069
  13 N :    0.256043

  Mayer bond orders larger than 0.100000
B(  0-C ,  1-C ) :   0.5599 B(  0-C ,  4-C ) :   0.1809 B(  0-C ,  5-C ) :   0.6370
B(  0-C , 12-C ) :   0.7418 B(  1-C ,  2-C ) :   1.3154 B(  1-C ,  3-C ) :  -0.1959
B(  1-C ,  5-C ) :  -0.1815 B(  1-C , 11-H ) :   0.9856 B(  1-C , 12-C ) :   0.2501
B(  1-C , 13-N ) :   0.1147 B(  2-C ,  3-C ) :   1.3134 B(  2-C , 10-H ) :   0.2823
B(  3-C ,  4-C ) :   0.5603 B(  3-C ,  5-C ) :  -0.1819 B(  3-C ,  7-C ) :   0.2522
B(  3-C ,  8-N ) :   0.1141 B(  3-C ,  9-H ) :   0.9862 B(  4-C ,  5-C ) :   0.6374
B(  4-C ,  7-C ) :   0.7391 B(  5-C ,  6-H ) :   1.0968 B(  7-C ,  8-N ) :   1.7339
B(  7-C , 12-C ) :   0.1790 B( 12-C , 13-N ) :   1.7369

Dispersion correction           -0.014280194
FINAL SINGLE POINT ENERGY      -416.407654494165

DIPOLE MOMENT
-------------

Method             : SCF
Type of density    : Electron Density
Multiplicity       :   1
Irrep              :   0
Energy             :  -416.3933743000055756 Eh
Relativity type    :
Basis              : AO
                                X                 Y                 Z
Electronic contribution:     -0.000067037      -2.432414534      -0.000586058
Nuclear contribution   :      0.000086736       4.828436464      -0.000303247
                        -----------------------------------------
Total Dipole Moment    :      0.000019699       2.396021930      -0.000889306
                        -----------------------------------------
Magnitude (a.u.)       :      2.396022095
Magnitude (Debye)      :      6.090204169

VIBRATIONAL FREQUENCIES
-----------------------

Scaling factor for frequencies =  1.000000000  (already applied!)

     0:       0.00 cm**-1
     1:       0.00 cm**-1
     2:       0.00 cm**-1
     3:       0.00 cm**-1
     4:       0.00 cm**-1
     5:       0.00 cm**-1
     6:     117.60 cm**-1
     7:     119.70 cm**-1
     8:     157.08 cm**-1
     9:     190.62 cm**-1
    10:     385.26 cm**-1
    11:     390.61 cm**-1
    12:     459.56 cm**-1
    13:     462.79 cm**-1
    14:     532.08 cm**-1
    15:     548.36 cm**-1
    16:     613.74 cm**-1
    17:     640.31 cm**-1
    18:     687.45 cm**-1
    19:     711.96 cm**-1
    20:     817.56 cm**-1
    21:     917.76 cm**-1
    22:     924.32 cm**-1
    23:     957.93 cm**-1
    24:    1016.10 cm**-1
    25:    1020.58 cm**-1
    26:    1114.79 cm**-1
    27:    1169.95 cm**-1
    28:    1178.07 cm**-1
    29:    1273.83 cm**-1
    30:    1313.11 cm**-1
    31:    1364.79 cm**-1
    32:    1457.84 cm**-1
    33:    1511.84 cm**-1
    34:    1633.03 cm**-1
    35:    1662.93 cm**-1
    36:    2358.76 cm**-1
    37:    2361.46 cm**-1
    38:    3214.13 cm**-1
    39:    3223.15 cm**-1
    40:    3230.15 cm**-1
    41:    3232.10 cm**-1

IR SPECTRUM
-----------

 Mode   freq       eps      Int      T**2         TX        TY        TZ
       cm**-1   L/(mol*cm) km/mol    a.u.
----------------------------------------------------------------------------
  6:    117.60   0.003721   18.80  0.009874  (-0.000003  0.099367  0.000308)
  7:    119.70   0.002009   10.15  0.005238  (-0.000142 -0.000406  0.072375)
  8:    157.08   0.000000    0.00  0.000000  (-0.000052  0.000247 -0.000011)
  9:    190.62   0.000735    3.71  0.001203  ( 0.034676  0.000002  0.000262)
 10:    385.26   0.000000    0.00  0.000000  ( 0.000059  0.000107 -0.000011)
 11:    390.61   0.000171    0.86  0.000136  ( 0.000076  0.000032  0.011673)
 12:    459.56   0.000039    0.20  0.000026  (-0.005128 -0.000016 -0.000212)
 13:    462.79   0.000228    1.15  0.000154  (-0.000007  0.012394  0.000022)
 14:    532.08   0.007070   35.73  0.004146  (-0.000085  0.000044  0.064393)
 15:    548.36   0.000595    3.01  0.000339  ( 0.000004 -0.018401  0.000040)
 16:    613.74   0.000452    2.28  0.000230  (-0.015159 -0.000003  0.000313)
 17:    640.31   0.000000    0.00  0.000000  ( 0.000074 -0.000048  0.000005)
 18:    687.45   0.011748   59.37  0.005333  (-0.000141 -0.000014  0.073027)
 19:    711.96   0.000043    0.22  0.000019  (-0.000002 -0.004363 -0.000006)
 20:    817.56   0.008488   42.90  0.003240  (-0.000014 -0.000009  0.056921)
 21:    917.76   0.002208   11.16  0.000751  ( 0.027390  0.000001 -0.000700)
 22:    924.32   0.004071   20.57  0.001374  ( 0.000499 -0.000017  0.037071)
 23:    957.93   0.000001    0.00  0.000000  (-0.000001  0.000492  0.000003)
 24:   1016.10   0.000349    1.76  0.000107  ( 0.000000 -0.010353  0.000002)
 25:   1020.58   0.000018    0.09  0.000006  ( 0.000148  0.000006 -0.002359)
 26:   1114.79   0.002888   14.59  0.000808  (-0.000003 -0.028433  0.000000)
 27:   1169.95   0.002046   10.34  0.000546  ( 0.023363 -0.000000  0.000107)
 28:   1178.07   0.001297    6.55  0.000344  ( 0.018533 -0.000005  0.000173)
 29:   1273.83   0.000979    4.95  0.000240  (-0.000001  0.015484  0.000003)
 30:   1313.11   0.000057    0.29  0.000014  ( 0.003683  0.000001  0.000067)
 31:   1364.79   0.001290    6.52  0.000295  (-0.017174 -0.000001 -0.000021)
 32:   1457.84   0.002327   11.76  0.000498  ( 0.000000 -0.022316 -0.000002)
 33:   1511.84   0.003478   17.58  0.000718  ( 0.026793 -0.000001  0.000034)
 34:   1633.03   0.000014    0.07  0.000003  (-0.000001 -0.001638 -0.000000)
 35:   1662.93   0.002859   14.45  0.000537  (-0.023163 -0.000001  0.000078)
 36:   2358.76   0.050070  253.03  0.006624  ( 0.081389 -0.000004 -0.000028)
 37:   2361.46   0.013434   67.89  0.001775  (-0.000007 -0.042134  0.000001)
 38:   3214.13   0.000140    0.71  0.000014  ( 0.000000 -0.003681  0.000000)
 39:   3223.15   0.000000    0.00  0.000000  ( 0.000125  0.000003  0.000070)
 40:   3230.15   0.000241    1.22  0.000023  (-0.000000  0.004821  0.000000)
 41:   3232.10   0.000243    1.23  0.000023  ( 0.000001  0.004845 -0.000001)

--------------------------
THERMOCHEMISTRY AT 298.15K
--------------------------

Temperature         ...   298.15 K
Pressure            ...     1.00 atm
Total Mass          ...   128.13 AMU
Quasi RRHO          ...     True
Cut-Off Frequency   ...     1.00 cm^-1

Throughout the following assumptions are being made:
  (1) The electronic state is orbitally nondegenerate
  (2) There are no thermally accessible electronically excited states
  (3) Hindered rotations indicated by low frequency modes are not
      treated as such but are treated as vibrations and this may
      cause some error
  (4) All equations used are the standard statistical mechanics
      equations for an ideal gas
  (5) All vibrations are strictly harmonic

freq.     117.60  E(vib)   ...       0.44
freq.     119.70  E(vib)   ...       0.44
freq.     157.08  E(vib)   ...       0.40
freq.     190.62  E(vib)   ...       0.36
freq.     385.26  E(vib)   ...       0.20
freq.     390.61  E(vib)   ...       0.20
freq.     459.56  E(vib)   ...       0.16
freq.     462.79  E(vib)   ...       0.16
freq.     532.08  E(vib)   ...       0.13
freq.     548.36  E(vib)   ...       0.12
freq.     613.74  E(vib)   ...       0.10
freq.     640.31  E(vib)   ...       0.09
freq.     687.45  E(vib)   ...       0.07
freq.     711.96  E(vib)   ...       0.07
freq.     817.56  E(vib)   ...       0.05
freq.     917.76  E(vib)   ...       0.03
freq.     924.32  E(vib)   ...       0.03
freq.     957.93  E(vib)   ...       0.03
freq.    1016.10  E(vib)   ...       0.02
freq.    1020.58  E(vib)   ...       0.02
freq.    1114.79  E(vib)   ...       0.01
freq.    1169.95  E(vib)   ...       0.01
freq.    1178.07  E(vib)   ...       0.01
freq.    1273.83  E(vib)   ...       0.01
freq.    1313.11  E(vib)   ...       0.01
freq.    1364.79  E(vib)   ...       0.01
freq.    1457.84  E(vib)   ...       0.00
freq.    1511.84  E(vib)   ...       0.00
freq.    1633.03  E(vib)   ...       0.00
freq.    1662.93  E(vib)   ...       0.00
freq.    2358.76  E(vib)   ...       0.00
freq.    2361.46  E(vib)   ...       0.00
freq.    3214.13  E(vib)   ...       0.00
freq.    3223.15  E(vib)   ...       0.00
freq.    3230.15  E(vib)   ...       0.00
freq.    3232.10  E(vib)   ...       0.00

------------
INNER ENERGY
------------

The inner energy is: U= E(el) + E(ZPE) + E(vib) + E(rot) + E(trans)
    E(el)   - is the total energy from the electronic structure calculation
              = E(kin-el) + E(nuc-el) + E(el-el) + E(nuc-nuc)
    E(ZPE)  - the the zero temperature vibrational energy from the frequency calculation
    E(vib)  - the the finite temperature correction to E(ZPE) due to population
              of excited vibrational states
    E(rot)  - is the rotational thermal energy
    E(trans)- is the translational thermal energy

Summary of contributions to the inner energy U:
Electronic energy                ...   -416.40765449 Eh
Zero point energy                ...      0.09789581 Eh      61.43 kcal/mol
Thermal vibrational correction   ...      0.00506067 Eh       3.18 kcal/mol
Thermal rotational correction    ...      0.00141627 Eh       0.89 kcal/mol
Thermal translational correction ...      0.00141627 Eh       0.89 kcal/mol
-----------------------------------------------------------------------
Total thermal energy                   -416.30186547 Eh

Summary of corrections to the electronic energy:
(perhaps to be used in another calculation)
Total thermal correction                  0.00789322 Eh       4.95 kcal/mol
Non-thermal (ZPE) correction              0.09789581 Eh      61.43 kcal/mol
-----------------------------------------------------------------------
Total correction                          0.10578903 Eh      66.38 kcal/mol

--------
ENTHALPY
--------

The enthalpy is H = U + kB*T
                kB is Boltzmann's constant
Total thermal energy              ...   -416.30186547 Eh
Thermal Enthalpy correction       ...      0.00094421 Eh       0.59 kcal/mol
-----------------------------------------------------------------------
Total Enthalpy                    ...   -416.30092126 Eh

Note: Only C1 symmetry has been detected, increase convergence thresholds
      if your molecule has a higher symmetry. Symmetry factor of 1.0 is
      used for the rotational entropy correction.

Note: Rotational entropy computed according to Herzberg
Infrared and Raman Spectra, Chapter V,1, Van Nostrand Reinhold, 1945
Point Group:  C1, Symmetry Number:   1
Rotational constants in cm-1:     0.091647     0.030671     0.022980

Vibrational entropy computed according to the QRRHO of S. Grimme
Chem.Eur.J. 2012 18 9955 using a reference frequency of 100.0 cm-1

-------
ENTROPY
-------

The entropy contributions are T*S = T*(S(el)+S(vib)+S(rot)+S(trans))
     S(el)   - electronic entropy
     S(vib)  - vibrational entropy
     S(rot)  - rotational entropy
     S(trans)- translational entropy
The entropies will be listed as multiplied by the temperature to get
units of energy

Electronic entropy                ...      0.00000000 Eh      0.00 kcal/mol
Vibrational entropy               ...      0.00847680 Eh      5.32 kcal/mol
Rotational entropy                ...      0.01406524 Eh      8.83 kcal/mol
Translational entropy             ...      0.01922234 Eh     12.06 kcal/mol
-----------------------------------------------------------------------
Final entropy term                ...      0.04176439 Eh     26.21 kcal/mol

In case the symmetry of your molecule has not been determined correctly
or in case you have a reason to use a different symmetry number we print
out the resulting rotational entropy values for sn=1,12:

 non-linear molecules -----------------------------------
|  sn= 1 | S(rot)=       0.01406524 Eh      8.83 kcal/mol|
|  sn= 2 | S(rot)=       0.01341079 Eh      8.42 kcal/mol|
|  sn= 3 | S(rot)=       0.01302796 Eh      8.18 kcal/mol|
|  sn= 4 | S(rot)=       0.01275633 Eh      8.00 kcal/mol|
|  sn= 5 | S(rot)=       0.01254564 Eh      7.87 kcal/mol|
|  sn= 6 | S(rot)=       0.01237350 Eh      7.76 kcal/mol|
|  sn= 7 | S(rot)=       0.01222795 Eh      7.67 kcal/mol|
|  sn= 8 | S(rot)=       0.01210187 Eh      7.59 kcal/mol|
|  sn= 9 | S(rot)=       0.01199067 Eh      7.52 kcal/mol|
|  sn=10 | S(rot)=       0.01189119 Eh      7.46 kcal/mol|
|  sn=11 | S(rot)=       0.01180120 Eh      7.41 kcal/mol|
|  sn=12 | S(rot)=       0.01171904 Eh      7.35 kcal/mol|
 linear molecules ---------------------------------------
|  Dinfh | S(rot)=       0.00888832 Eh      5.58 kcal/mol|
|  Cinfv | S(rot)=       0.00954277 Eh      5.99 kcal/mol|
 --------------------------------------------------------

-------------------
GIBBS FREE ENERGY
-------------------

The Gibbs free energy is G = H - T*S

                             ****ORCA TERMINATED NORMALLY****
TOTAL RUN TIME: 0 days 0 hours 24 minutes 1 seconds 608 msec
