                         Program Version 6.0.0  -   RELEASE  -
|  1> !PBE0 def2-SV(p) Opt Freq d3 TightSCF SlowConv RIJCOSX defgrid2
|  2>
|  3> %pal
|  4> nprocs 8
|  5> end
|  6>
|  7> %scf
|  8> MaxIter 1500
|  9> end
| 10>
| 11> %maxcore 3000
| 12>
| 13> * xyz 1 2
| 14> 6        0.344812600     -1.208415600     -0.131816400
| 15> 7        1.105470000      0.000014400     -0.033919600
| 16> 1        2.131129800      0.000038600     -0.060807800
| 17> 6        0.350975200      1.208584800      0.102643000
| 18> 6       -1.123761800      0.772835400     -0.161957600
| 19> 6       -1.113438000     -0.772958200      0.212247800
| 20> 1       -1.323175400     -0.952929200      1.362613200
| 21> 1       -1.921184000     -1.394748800     -0.382697400
| 22> 1       -1.898024400      1.394138800      0.476374200
| 23> 1       -1.395750400      0.952829600     -1.299148600
| 24> 1        0.781098600      2.016466200     -0.592317400
| 25> 1        0.554418800      1.611454400      1.169594800
| 26> 1        0.490416800     -1.608933000     -1.209185200
| 27> 1        0.811605400     -2.017793600      0.537173600
| 28> *
| 29>
| 30>                          ****END OF INPUT****
 Total Charge           Charge          ....    1
 Multiplicity           Mult            ....    2
 Number of Electrons    NEL             ....   39
Dispersion correction           -0.008648530
FINAL SINGLE POINT ENERGY      -211.858863690274
Dispersion correction             ... done (  0.1 sec)
Dispersion correction           -0.008782623
FINAL SINGLE POINT ENERGY      -211.878711951350
Dispersion correction             ... done (  0.0 sec)
Dispersion correction           -0.008829631
FINAL SINGLE POINT ENERGY      -211.879681218698
Dispersion correction             ... done (  0.1 sec)
FINAL SINGLE POINT ENERGY      -211.879774307647
FINAL SINGLE POINT ENERGY      -211.879835599579
Dispersion correction             ... done (  0.0 sec)
Dispersion correction           -0.008844111
FINAL SINGLE POINT ENERGY      -211.879853986267
Dispersion correction             ... done (  0.1 sec)
Dispersion correction           -0.008846490
FINAL SINGLE POINT ENERGY      -211.879858854179
Dispersion correction             ... done (  0.1 sec)
                    ***********************HURRAY********************

CARTESIAN COORDINATES (ANGSTROEM)
---------------------------------
  C      0.321020   -1.195424   -0.141485
  N      1.102437    0.000166   -0.034935
  H      2.127908    0.000325   -0.063920
  C      0.327769    1.195597    0.114195
  C     -1.101841    0.739603   -0.177058
  C     -1.090902   -0.739574    0.225977
  H     -1.245134   -0.856144    1.312287
  H     -1.862476   -1.332777   -0.285776
  H     -1.844899    1.332630    0.375469
  H     -1.314180    0.856311   -1.253525
  H      0.740604    2.000310   -0.523406
  H      0.464834    1.544539    1.165841
  H      0.401872   -1.545351   -1.198591
  H      0.767580   -1.999627    0.473724

 Multiplicity           Mult            ....    2
 Number of Electrons    NEL             ....   39
 Basis Dimension        Dim             ....   88

ORBITAL ENERGIES
----------------
                 SPIN UP ORBITALS
  NO   OCC          E(Eh)            E(eV)
   0   1.0000     -14.721859      -400.6022
   1   1.0000     -10.482250      -285.2365
   2   1.0000     -10.482237      -285.2362
   3   1.0000     -10.420261      -283.5497
   4   1.0000     -10.420159      -283.5469
   5   1.0000      -1.238336       -33.6968
   6   1.0000      -1.005919       -27.3724
   7   1.0000      -0.984521       -26.7902
   8   1.0000      -0.845414       -23.0049
   9   1.0000      -0.814639       -22.1674
  10   1.0000      -0.786311       -21.3966
  11   1.0000      -0.749781       -20.4026
  12   1.0000      -0.672670       -18.3043
  13   1.0000      -0.656491       -17.8640
  14   1.0000      -0.630393       -17.1539
  15   1.0000      -0.625933       -17.0325
  16   1.0000      -0.571310       -15.5461
  17   1.0000      -0.563923       -15.3451
  18   1.0000      -0.532726       -14.4962
  19   1.0000      -0.521041       -14.1783
  20   0.0000      -0.138429        -3.7668
  21   0.0000      -0.093900        -2.5552
  22   0.0000      -0.086934        -2.3656
  23   0.0000      -0.066946        -1.8217
  24   0.0000      -0.049617        -1.3502

                 SPIN DOWN ORBITALS
  NO   OCC          E(Eh)            E(eV)
   0   1.0000     -14.702375      -400.0720
   1   1.0000     -10.482713      -285.2491
   2   1.0000     -10.482701      -285.2488
   3   1.0000     -10.420145      -283.5465
   4   1.0000     -10.420042      -283.5438
   5   1.0000      -1.204326       -32.7714
   6   1.0000      -0.995855       -27.0986
   7   1.0000      -0.978806       -26.6347
   8   1.0000      -0.836152       -22.7528
   9   1.0000      -0.810555       -22.0563
  10   1.0000      -0.774546       -21.0765
  11   1.0000      -0.717744       -19.5308
  12   1.0000      -0.655955       -17.8494
  13   1.0000      -0.641986       -17.4693
  14   1.0000      -0.622991       -16.9524
  15   1.0000      -0.608678       -16.5630
  16   1.0000      -0.570361       -15.5203
  17   1.0000      -0.562493       -15.3062
  18   1.0000      -0.528969       -14.3940
  19   0.0000      -0.355849        -9.6831
  20   0.0000      -0.132286        -3.5997
  21   0.0000      -0.087985        -2.3942
  22   0.0000      -0.081836        -2.2269
  23   0.0000      -0.063450        -1.7266

MULLIKEN ATOMIC CHARGES AND SPIN POPULATIONS
--------------------------------------------
   0 C :   -0.119592   -0.038822
   1 N :   -0.228570    0.840562
   2 H :    0.337651   -0.034076
   3 C :   -0.119649   -0.038833
   4 C :   -0.283194    0.006716
   5 C :   -0.283436    0.006596
   6 H :    0.186171    0.000424
   7 H :    0.203208   -0.001339
   8 H :    0.203217   -0.001339
   9 H :    0.186183    0.000424
  10 H :    0.226282    0.042893
  11 H :    0.232708    0.086912
  12 H :    0.232641    0.086818
  13 H :    0.226379    0.043062
Sum of atomic charges         :    1.0000000

LOEWDIN ATOMIC CHARGES AND SPIN POPULATIONS
-------------------------------------------
   0 C :   -0.150042    0.005022
   1 N :    0.096178    0.781895
   2 H :    0.290093   -0.021741
   3 C :   -0.150035    0.005020
   4 C :   -0.229030    0.005823
   5 C :   -0.229079    0.005724
   6 H :    0.154440    0.000635
   7 H :    0.164624   -0.001215
   8 H :    0.164621   -0.001214
   9 H :    0.154429    0.000635
  10 H :    0.178122    0.036398
  11 H :    0.188767    0.073273
  12 H :    0.188731    0.073199
  13 H :    0.178183    0.036545

  Mayer bond orders larger than 0.100000
B(  0-C ,  1-N ) :   1.0056 B(  0-C ,  5-C ) :   1.0509 B(  0-C , 12-H ) :   0.8634
B(  0-C , 13-H ) :   0.8895 B(  1-N ,  2-H ) :   0.8244 B(  1-N ,  3-C ) :   1.0056
B(  3-C ,  4-C ) :   1.0507 B(  3-C , 10-H ) :   0.8896 B(  3-C , 11-H ) :   0.8634
B(  4-C ,  5-C ) :   1.0841 B(  4-C ,  8-H ) :   0.9205 B(  4-C ,  9-H ) :   0.9178
B(  5-C ,  6-H ) :   0.9178 B(  5-C ,  7-H ) :   0.9205

Dispersion correction           -0.008846781
FINAL SINGLE POINT ENERGY      -211.879859847941

DIPOLE MOMENT
-------------

Method             : SCF
Type of density    : Electron Density
Multiplicity       :   2
Irrep              :   0
Energy             :  -211.8710130668439433 Eh
Relativity type    :
Basis              : AO
                                X                 Y                 Z
Electronic contribution:      2.192684977       0.000324778      -0.059472491
Nuclear contribution   :     -1.068975804      -0.000388057       0.028795519
                        -----------------------------------------
Total Dipole Moment    :      1.123709173      -0.000063279      -0.030676971
                        -----------------------------------------
Magnitude (a.u.)       :      1.124127834
Magnitude (Debye)      :      2.857305879

VIBRATIONAL FREQUENCIES
-----------------------

Scaling factor for frequencies =  1.000000000  (already applied!)

     0:       0.00 cm**-1
     1:       0.00 cm**-1
     2:       0.00 cm**-1
     3:       0.00 cm**-1
     4:       0.00 cm**-1
     5:       0.00 cm**-1
     6:     213.76 cm**-1
     7:     217.85 cm**-1
     8:     555.35 cm**-1
     9:     616.30 cm**-1
    10:     674.14 cm**-1
    11:     816.95 cm**-1
    12:     856.40 cm**-1
    13:     894.70 cm**-1
    14:     935.94 cm**-1
    15:     942.50 cm**-1
    16:     950.63 cm**-1
    17:    1028.85 cm**-1
    18:    1063.27 cm**-1
    19:    1070.50 cm**-1
    20:    1162.82 cm**-1
    21:    1184.52 cm**-1
    22:    1223.72 cm**-1
    23:    1248.32 cm**-1
    24:    1290.69 cm**-1
    25:    1320.43 cm**-1
    26:    1349.84 cm**-1
    27:    1378.18 cm**-1
    28:    1387.11 cm**-1
    29:    1394.88 cm**-1
    30:    1455.74 cm**-1
    31:    1477.31 cm**-1
    32:    1488.75 cm**-1
    33:    2944.27 cm**-1
    34:    2952.85 cm**-1
    35:    3078.81 cm**-1
    36:    3080.05 cm**-1
    37:    3088.99 cm**-1
    38:    3094.27 cm**-1
    39:    3167.82 cm**-1
    40:    3172.13 cm**-1
    41:    3493.61 cm**-1

IR SPECTRUM
-----------

 Mode   freq       eps      Int      T**2         TX        TY        TZ
       cm**-1   L/(mol*cm) km/mol    a.u.
----------------------------------------------------------------------------
  6:    213.76   0.000177    0.89  0.000258  ( 0.000233 -0.016009  0.001315)
  7:    217.85   0.000164    0.83  0.000235  (-0.015332 -0.000235  0.000420)
  8:    555.35   0.010880   54.98  0.006113  ( 0.002230 -0.004120  0.078048)
  9:    616.30   0.003179   16.07  0.001610  (-0.001222  0.003303 -0.039966)
 10:    674.14   0.000221    1.12  0.000102  (-0.010104  0.000006  0.000304)
 11:    816.95   0.000466    2.35  0.000178  ( 0.013334 -0.000018 -0.000373)
 12:    856.40   0.000997    5.04  0.000363  ( 0.000459  0.004763  0.018454)
 13:    894.70   0.000905    4.57  0.000316  ( 0.000132 -0.017517  0.002970)
 14:    935.94   0.000768    3.88  0.000256  ( 0.015994 -0.000088 -0.000442)
 15:    942.50   0.000001    0.00  0.000000  ( 0.000540  0.000011 -0.000012)
 16:    950.63   0.003881   19.61  0.001274  ( 0.000104  0.035632  0.002067)
 17:   1028.85   0.000027    0.14  0.000008  ( 0.002870 -0.000013 -0.000065)
 18:   1063.27   0.000003    0.02  0.000001  ( 0.000894 -0.000416 -0.000123)
 19:   1070.50   0.008051   40.68  0.002347  ( 0.000312  0.046899  0.012132)
 20:   1162.82   0.001164    5.88  0.000312  (-0.000414  0.010733 -0.014036)
 21:   1184.52   0.000561    2.84  0.000148  ( 0.012157 -0.000001 -0.000356)
 22:   1223.72   0.000535    2.71  0.000137  ( 0.011678  0.000038 -0.000363)
 23:   1248.32   0.000778    3.93  0.000195  (-0.000316  0.007680 -0.011640)
 24:   1290.69   0.000927    4.68  0.000224  ( 0.000042  0.014667  0.002988)
 25:   1320.43   0.001388    7.02  0.000328  (-0.000109 -0.017480 -0.004751)
 26:   1349.84   0.000508    2.57  0.000117  (-0.010834 -0.000169  0.000215)
 27:   1378.18   0.000381    1.92  0.000086  (-0.009277 -0.000371  0.000093)
 28:   1387.11   0.009885   49.95  0.002224  (-0.000534 -0.043232 -0.018831)
 29:   1394.88   0.001288    6.51  0.000288  (-0.016963  0.000305  0.000560)
 30:   1455.74   0.009200   46.49  0.001972  (-0.000006 -0.044406 -0.000420)
 31:   1477.31   0.001908    9.64  0.000403  ( 0.000555 -0.004570  0.019543)
 32:   1488.75   0.001801    9.10  0.000378  ( 0.019422  0.000030 -0.000564)
 33:   2944.27   0.016317   82.46  0.001729  ( 0.000258  0.037899  0.017118)
 34:   2952.85   0.001493    7.54  0.000158  (-0.012545 -0.000603  0.000080)
 35:   3078.81   0.000125    0.63  0.000013  (-0.000091  0.002775 -0.002228)
 36:   3080.05   0.004379   22.13  0.000444  ( 0.000349 -0.016298  0.013341)
 37:   3088.99   0.000001    0.00  0.000000  (-0.000167  0.000232 -0.000098)
 38:   3094.27   0.000209    1.06  0.000021  ( 0.000124  0.002103  0.004081)
 39:   3167.82   0.000141    0.71  0.000014  ( 0.003728 -0.000009 -0.000115)
 40:   3172.13   0.000124    0.62  0.000012  (-0.000099 -0.002312 -0.002608)
 41:   3493.61   0.024209  122.34  0.002162  (-0.046483 -0.000013  0.001316)

--------------------------
THERMOCHEMISTRY AT 298.15K
--------------------------

Temperature         ...   298.15 K
Pressure            ...     1.00 atm
Total Mass          ...    71.12 AMU
Quasi RRHO          ...     True
Cut-Off Frequency   ...     1.00 cm^-1

Throughout the following assumptions are being made:
  (1) The electronic state is orbitally nondegenerate
      but the spin degeneracy is treated
  (2) There are no thermally accessible electronically excited states
  (3) Hindered rotations indicated by low frequency modes are not
      treated as such but are treated as vibrations and this may
      cause some error
  (4) All equations used are the standard statistical mechanics
      equations for an ideal gas
  (5) All vibrations are strictly harmonic

freq.     213.76  E(vib)   ...       0.34
freq.     217.85  E(vib)   ...       0.33
freq.     555.35  E(vib)   ...       0.12
freq.     616.30  E(vib)   ...       0.09
freq.     674.14  E(vib)   ...       0.08
freq.     816.95  E(vib)   ...       0.05
freq.     856.40  E(vib)   ...       0.04
freq.     894.70  E(vib)   ...       0.03
freq.     935.94  E(vib)   ...       0.03
freq.     942.50  E(vib)   ...       0.03
freq.     950.63  E(vib)   ...       0.03
freq.    1028.85  E(vib)   ...       0.02
freq.    1063.27  E(vib)   ...       0.02
freq.    1070.50  E(vib)   ...       0.02
freq.    1162.82  E(vib)   ...       0.01
freq.    1184.52  E(vib)   ...       0.01
freq.    1223.72  E(vib)   ...       0.01
freq.    1248.32  E(vib)   ...       0.01
freq.    1290.69  E(vib)   ...       0.01
freq.    1320.43  E(vib)   ...       0.01
freq.    1349.84  E(vib)   ...       0.01
freq.    1378.18  E(vib)   ...       0.01
freq.    1387.11  E(vib)   ...       0.00
freq.    1394.88  E(vib)   ...       0.00
freq.    1455.74  E(vib)   ...       0.00
freq.    1477.31  E(vib)   ...       0.00
freq.    1488.75  E(vib)   ...       0.00
freq.    2944.27  E(vib)   ...       0.00
freq.    2952.85  E(vib)   ...       0.00
freq.    3078.81  E(vib)   ...       0.00
freq.    3080.05  E(vib)   ...       0.00
freq.    3088.99  E(vib)   ...       0.00
freq.    3094.27  E(vib)   ...       0.00
freq.    3167.82  E(vib)   ...       0.00
freq.    3172.13  E(vib)   ...       0.00
freq.    3493.61  E(vib)   ...       0.00

------------
INNER ENERGY
------------

The inner energy is: U= E(el) + E(ZPE) + E(vib) + E(rot) + E(trans)
    E(el)   - is the total energy from the electronic structure calculation
              = E(kin-el) + E(nuc-el) + E(el-el) + E(nuc-nuc)
    E(ZPE)  - the the zero temperature vibrational energy from the frequency calculation
    E(vib)  - the the finite temperature correction to E(ZPE) due to population
              of excited vibrational states
    E(rot)  - is the rotational thermal energy
    E(trans)- is the translational thermal energy

Summary of contributions to the inner energy U:
Electronic energy                ...   -211.87985985 Eh
Zero point energy                ...      0.12819757 Eh      80.45 kcal/mol
Thermal vibrational correction   ...      0.00209100 Eh       1.31 kcal/mol
Thermal rotational correction    ...      0.00141627 Eh       0.89 kcal/mol
Thermal translational correction ...      0.00141627 Eh       0.89 kcal/mol
-----------------------------------------------------------------------
Total thermal energy                   -211.74673873 Eh

Summary of corrections to the electronic energy:
(perhaps to be used in another calculation)
Total thermal correction                  0.00492354 Eh       3.09 kcal/mol
Non-thermal (ZPE) correction              0.12819757 Eh      80.45 kcal/mol
-----------------------------------------------------------------------
Total correction                          0.13312111 Eh      83.53 kcal/mol

--------
ENTHALPY
--------

The enthalpy is H = U + kB*T
                kB is Boltzmann's constant
Total thermal energy              ...   -211.74673873 Eh
Thermal Enthalpy correction       ...      0.00094421 Eh       0.59 kcal/mol
-----------------------------------------------------------------------
Total Enthalpy                    ...   -211.74579453 Eh

Note: Only C1 symmetry has been detected, increase convergence thresholds
      if your molecule has a higher symmetry. Symmetry factor of 1.0 is
      used for the rotational entropy correction.

Note: Rotational entropy computed according to Herzberg
Infrared and Raman Spectra, Chapter V,1, Van Nostrand Reinhold, 1945
Point Group:  C1, Symmetry Number:   1
Rotational constants in cm-1:     0.231930     0.228924     0.129807

Vibrational entropy computed according to the QRRHO of S. Grimme
Chem.Eur.J. 2012 18 9955 using a reference frequency of 100.0 cm-1

-------
ENTROPY
-------

The entropy contributions are T*S = T*(S(el)+S(vib)+S(rot)+S(trans))
     S(el)   - electronic entropy
     S(vib)  - vibrational entropy
     S(rot)  - rotational entropy
     S(trans)- translational entropy
The entropies will be listed as multiplied by the temperature to get
units of energy

Electronic entropy                ...      0.00065446 Eh      0.41 kcal/mol
Vibrational entropy               ...      0.00318827 Eh      2.00 kcal/mol
Rotational entropy                ...      0.01186059 Eh      7.44 kcal/mol
Translational entropy             ...      0.01838863 Eh     11.54 kcal/mol
-----------------------------------------------------------------------
Final entropy term                ...      0.03409195 Eh     21.39 kcal/mol

In case the symmetry of your molecule has not been determined correctly
or in case you have a reason to use a different symmetry number we print
out the resulting rotational entropy values for sn=1,12:

 non-linear molecules -----------------------------------
|  sn= 1 | S(rot)=       0.01186059 Eh      7.44 kcal/mol|
|  sn= 2 | S(rot)=       0.01120613 Eh      7.03 kcal/mol|
|  sn= 3 | S(rot)=       0.01082330 Eh      6.79 kcal/mol|
|  sn= 4 | S(rot)=       0.01055168 Eh      6.62 kcal/mol|
|  sn= 5 | S(rot)=       0.01034099 Eh      6.49 kcal/mol|
|  sn= 6 | S(rot)=       0.01016885 Eh      6.38 kcal/mol|
|  sn= 7 | S(rot)=       0.01002330 Eh      6.29 kcal/mol|
|  sn= 8 | S(rot)=       0.00989722 Eh      6.21 kcal/mol|
|  sn= 9 | S(rot)=       0.00978601 Eh      6.14 kcal/mol|
|  sn=10 | S(rot)=       0.00968653 Eh      6.08 kcal/mol|
|  sn=11 | S(rot)=       0.00959654 Eh      6.02 kcal/mol|
|  sn=12 | S(rot)=       0.00951439 Eh      5.97 kcal/mol|
 linear molecules ---------------------------------------
|  Dinfh | S(rot)=       0.00725355 Eh      4.55 kcal/mol|
|  Cinfv | S(rot)=       0.00790800 Eh      4.96 kcal/mol|
 --------------------------------------------------------

-------------------
GIBBS FREE ENERGY
-------------------

The Gibbs free energy is G = H - T*S

                             ****ORCA TERMINATED NORMALLY****
TOTAL RUN TIME: 0 days 0 hours 5 minutes 16 seconds 73 msec
