                         Program Version 6.0.0  -   RELEASE  -
|  1> !r2SCAN aug-cc-pVTZ d3 TightSCF SlowConv RIJCOSX defgrid2
|  2>
|  3> %pal
|  4> nprocs 4
|  5> end
|  6>
|  7> %scf
|  8> MaxIter 1500
|  9> end
| 10>
| 11> %maxcore 3000
| 12>
| 13> !CPCM
| 14> %cpcm smd true
| 15> SMDsolvent "MeCN"
| 16> surfacetype gepol_ses
| 17> rsolv 2.19
| 18> end
| 19>
| 20> * xyz -1 2
| 21> C          -0.01331421056281      1.21015152275559     -0.00003912841012
| 22> C           1.37407426915828      1.22077182581697      0.00009471803504
| 23> C           2.08268728216500      0.01623593632828      0.00008078293558
| 24> C           1.39800867624770     -1.21018542596672     -0.00005492668248
| 25> C           0.01763373542032     -1.22524409629627     -0.00018246787257
| 26> C          -0.75988843497050     -0.01763719993150     -0.00018385015586
| 27> C          -2.18998893121825     -0.10468719257966     -0.00029823993913
| 28> O          -2.82191384294989     -1.19348424477804     -0.00032077578394
| 29> C          -2.98040993394950      1.20193760901241     -0.00023396308602
| 30> H          -2.77113925068928      1.83311429650402      0.88831166373856
| 31> H          -2.77095660989795      1.83331313895105     -0.88859326031545
| 32> H          -4.05230547218906      0.94280281896802     -0.00037251615162
| 33> H          -0.53955758793286     -2.16627118900373     -0.00028423650614
| 34> H           1.97817281356228     -2.14018774357936     -0.00004958149680
| 35> F           3.44427090335711      0.03016813897025      0.00021925839865
| 36> H           1.93269491180525      2.16366570442592      0.00021265957610
| 37> H          -0.54367651735585      2.16766590040277     -0.00001523628380
| 38> *
| 39>
| 40>                          ****END OF INPUT****

CARTESIAN COORDINATES (ANGSTROEM)
---------------------------------
  C     -0.013314    1.210152   -0.000039
  C      1.374074    1.220772    0.000095
  C      2.082687    0.016236    0.000081
  C      1.398009   -1.210185   -0.000055
  C      0.017634   -1.225244   -0.000182
  C     -0.759888   -0.017637   -0.000184
  C     -2.189989   -0.104687   -0.000298
  O     -2.821914   -1.193484   -0.000321
  C     -2.980410    1.201938   -0.000234
  H     -2.771139    1.833114    0.888312
  H     -2.770957    1.833313   -0.888593
  H     -4.052305    0.942803   -0.000373
  H     -0.539558   -2.166271   -0.000284
  H      1.978173   -2.140188   -0.000050
  F      3.444271    0.030168    0.000219
  H      1.932695    2.163666    0.000213
  H     -0.543677    2.167666   -0.000015

 Total Charge           Charge          ....   -1
 Multiplicity           Mult            ....    2
 Number of Electrons    NEL             ....   73
 Basis Dimension        Dim             ....  621

ORBITAL ENERGIES
----------------
                 SPIN UP ORBITALS
  NO   OCC          E(Eh)            E(eV)
   0   1.0000     -24.488511      -666.3663
   1   1.0000     -18.874001      -513.5877
   2   1.0000     -10.089127      -274.5391
   3   1.0000     -10.048151      -273.4241
   4   1.0000     -10.023547      -272.7546
   5   1.0000     -10.023342      -272.7490
   6   1.0000     -10.021321      -272.6940
   7   1.0000     -10.015811      -272.5441
   8   1.0000     -10.006488      -272.2904
   9   1.0000     -10.004892      -272.2469
  10   1.0000      -1.168976       -31.8094
  11   1.0000      -0.926331       -25.2067
  12   1.0000      -0.798459       -21.7272
  13   1.0000      -0.705793       -19.2056
  14   1.0000      -0.697806       -18.9883
  15   1.0000      -0.655964       -17.8497
  16   1.0000      -0.576521       -15.6879
  17   1.0000      -0.558252       -15.1908
  18   1.0000      -0.491314       -13.3693
  19   1.0000      -0.489094       -13.3089
  20   1.0000      -0.430324       -11.7097
  21   1.0000      -0.417713       -11.3666
  22   1.0000      -0.406902       -11.0724
  23   1.0000      -0.389268       -10.5925
  24   1.0000      -0.374057       -10.1786
  25   1.0000      -0.371432       -10.1072
  26   1.0000      -0.355877        -9.6839
  27   1.0000      -0.346693        -9.4340
  28   1.0000      -0.323737        -8.8093
  29   1.0000      -0.320372        -8.7178
  30   1.0000      -0.308670        -8.3993
  31   1.0000      -0.283884        -7.7249
  32   1.0000      -0.276888        -7.5345
  33   1.0000      -0.229655        -6.2492
  34   1.0000      -0.208736        -5.6800
  35   1.0000      -0.172813        -4.7025
  36   1.0000      -0.075422        -2.0523
  37   0.0000      -0.023228        -0.6321
  38   0.0000       0.005257         0.1431
  39   0.0000       0.020128         0.5477
  40   0.0000       0.023418         0.6372
  41   0.0000       0.029494         0.8026

                 SPIN DOWN ORBITALS
  NO   OCC          E(Eh)            E(eV)
   0   1.0000     -24.487381      -666.3355
   1   1.0000     -18.867714      -513.4166
   2   1.0000     -10.083636      -274.3897
   3   1.0000     -10.043080      -273.2861
   4   1.0000     -10.025261      -272.8012
   5   1.0000     -10.024976      -272.7935
   6   1.0000     -10.018374      -272.6138
   7   1.0000     -10.012700      -272.4594
   8   1.0000     -10.005392      -272.2606
   9   1.0000     -10.005330      -272.2589
  10   1.0000      -1.166865       -31.7520
  11   1.0000      -0.916112       -24.9287
  12   1.0000      -0.794706       -21.6250
  13   1.0000      -0.699610       -19.0374
  14   1.0000      -0.694184       -18.8897
  15   1.0000      -0.653069       -17.7709
  16   1.0000      -0.568461       -15.4686
  17   1.0000      -0.555819       -15.1246
  18   1.0000      -0.487872       -13.2757
  19   1.0000      -0.484962       -13.1965
  20   1.0000      -0.429320       -11.6824
  21   1.0000      -0.407825       -11.0975
  22   1.0000      -0.402770       -10.9599
  23   1.0000      -0.387550       -10.5458
  24   1.0000      -0.370935       -10.0936
  25   1.0000      -0.363021        -9.8783
  26   1.0000      -0.353908        -9.6303
  27   1.0000      -0.345166        -9.3925
  28   1.0000      -0.320720        -8.7272
  29   1.0000      -0.311936        -8.4882
  30   1.0000      -0.306407        -8.3378
  31   1.0000      -0.275520        -7.4973
  32   1.0000      -0.263301        -7.1648
  33   1.0000      -0.222018        -6.0414
  34   1.0000      -0.191273        -5.2048
  35   1.0000      -0.167989        -4.5712
  36   0.0000      -0.036221        -0.9856
  37   0.0000      -0.017456        -0.4750
  38   0.0000       0.008209         0.2234
  39   0.0000       0.021780         0.5927
  40   0.0000       0.026020         0.7080

MULLIKEN ATOMIC CHARGES AND SPIN POPULATIONS
--------------------------------------------
   0 C :   -0.481236    0.280771
   1 C :   -0.861006   -0.187501
   2 C :    0.612653    0.336901
   3 C :   -0.717518   -0.181614
   4 C :   -0.922338    0.277495
   5 C :    1.694648    0.014639
   6 C :    0.455141    0.273022
   7 O :   -1.090858    0.223124
   8 C :   -0.558896   -0.056545
   9 H :    0.198124    0.022544
  10 H :    0.199163    0.022519
  11 H :    0.130876   -0.007767
  12 H :    0.093602   -0.019365
  13 H :    0.396697   -0.003188
  14 F :   -0.538596    0.021472
  15 H :    0.391232   -0.002772
  16 H :   -0.001688   -0.013734
Sum of atomic charges         :   -1.0000000

LOEWDIN ATOMIC CHARGES AND SPIN POPULATIONS
-------------------------------------------
   0 C :    0.145612    0.094844
   1 C :    0.130005    0.020908
   2 C :   -0.576082    0.134985
   3 C :    0.129408    0.020081
   4 C :    0.129691    0.095508
   5 C :   -0.214757    0.120291
   6 C :   -0.681014    0.191666
   7 O :    0.332913    0.194559
   8 C :    0.494116    0.036938
   9 H :   -0.179989    0.009683
  10 H :   -0.180033    0.009679
  11 H :   -0.205716   -0.000899
  12 H :   -0.216569    0.021894
  13 H :   -0.190519   -0.006827
  14 F :    0.476550    0.041808
  15 H :   -0.189440   -0.006331
  16 H :   -0.204177    0.021212

  Mayer bond orders larger than 0.100000
B(  0-C ,  1-C ) :   0.8829 B(  0-C ,  2-C ) :  -0.2368 B(  0-C ,  3-C ) :  -0.1962
B(  0-C ,  4-C ) :  -0.3699 B(  0-C ,  5-C ) :   0.1487 B(  0-C ,  6-C ) :   0.2555
B(  0-C , 12-H ) :   0.1175 B(  0-C , 16-H ) :   1.4245 B(  1-C ,  2-C ) :   1.2301
B(  1-C ,  3-C ) :   0.2915 B(  1-C ,  4-C ) :  -0.1160 B(  1-C ,  5-C ) :   0.1963
B(  1-C , 14-F ) :   0.1708 B(  1-C , 15-H ) :   0.5779 B(  1-C , 16-H ) :  -0.1071
B(  2-C ,  3-C ) :   1.2530 B(  2-C ,  4-C ) :  -0.2778 B(  2-C ,  6-C ) :   0.1100
B(  2-C , 14-F ) :   0.2475 B(  3-C ,  4-C ) :   1.2991 B(  3-C , 13-H ) :   0.5763
B(  3-C , 14-F ) :   0.1559 B(  3-C , 16-H ) :  -0.1407 B(  4-C ,  6-C ) :   0.4179
B(  4-C , 12-H ) :   1.0896 B(  4-C , 16-H ) :   0.1757 B(  5-C ,  6-C ) :   0.3150
B(  5-C ,  7-O ) :   0.1837 B(  5-C , 12-H ) :  -0.1039 B(  5-C , 16-H ) :  -0.2531
B(  6-C ,  7-O ) :   0.6207 B(  6-C ,  8-C ) :   0.8898 B(  6-C , 13-H ) :   0.1040
B(  7-O , 12-H ) :   0.1337 B(  8-C ,  9-H ) :   0.9783 B(  8-C , 10-H ) :   0.9778
B(  8-C , 11-H ) :   0.9725 B( 12-H , 16-H ) :   0.1369

Dispersion correction           -0.005196732
FINAL SINGLE POINT ENERGY      -484.157702262493

DIPOLE MOMENT
-------------

Method             : SCF
Type of density    : Electron Density
Multiplicity       :   2
Irrep              :   0
Energy             :  -484.1525055301541443 Eh
Relativity type    :
Basis              : AO
                                X                 Y                 Z
Electronic contribution:     11.394580750      -2.894086058       0.001206533
Nuclear contribution   :     -9.605928906       4.332386022      -0.000475554
                        -----------------------------------------
Total Dipole Moment    :      1.788651844       1.438299964       0.000730979
                        -----------------------------------------
Magnitude (a.u.)       :      2.295208649
Magnitude (Debye)      :      5.833956753

Rotational constants in cm-1:             0.120873             0.025381             0.021060
Rotational constants in MHz :          3623.689684           760.893162           631.349310

                             ****ORCA TERMINATED NORMALLY****
TOTAL RUN TIME: 0 days 0 hours 4 minutes 41 seconds 656 msec
