                         Program Version 6.0.0  -   RELEASE  -
|  1> !PBE0 aug-cc-pVTZ d3 TightSCF SlowConv RIJCOSX defgrid2
|  2>
|  3> %pal
|  4> nprocs 4
|  5> end
|  6>
|  7> %scf
|  8> MaxIter 1500
|  9> end
| 10>
| 11> %maxcore 3000
| 12>
| 13> !CPCM
| 14> %cpcm smd true
| 15> SMDsolvent "MeCN"
| 16> surfacetype gepol_ses
| 17> rsolv 2.19
| 18> end
| 19>
| 20> * xyz 0 1
| 21> C          -0.32048925823531     -1.08595168044653      0.00000936001316
| 22> C           0.99134202132746     -0.71584755612509      0.00000868106802
| 23> C           0.99130010917711      0.71590356660469     -0.00000127622817
| 24> C          -0.32055285170877      1.08593010296315      0.00001410652456
| 25> O          -1.11730139846665     -0.00003401203653      0.00002911176710
| 26> H          -0.82672168713073      2.04926041846335      0.00001957189355
| 27> H           1.85496968086204      1.37963412608217     -0.00001317553983
| 28> H           1.85505107384009     -1.37952667121287      0.00000466755780
| 29> H          -0.82660178966524     -2.04931169429235      0.00001155294381
| 30> *
| 31>
| 32>                          ****END OF INPUT****

CARTESIAN COORDINATES (ANGSTROEM)
---------------------------------
  C     -0.320489   -1.085952    0.000009
  C      0.991342   -0.715848    0.000009
  C      0.991300    0.715904   -0.000001
  C     -0.320553    1.085930    0.000014
  O     -1.117301   -0.000034    0.000029
  H     -0.826722    2.049260    0.000020
  H      1.854970    1.379634   -0.000013
  H      1.855051   -1.379527    0.000005
  H     -0.826602   -2.049312    0.000012

 Total Charge           Charge          ....    0
 Multiplicity           Mult            ....    1
 Number of Electrons    NEL             ....   36
 Basis Dimension        Dim             ....  322

ORBITAL ENERGIES
----------------

  NO   OCC          E(Eh)            E(eV)
   0   2.0000     -19.283613      -524.7338
   1   2.0000     -10.272779      -279.5365
   2   2.0000     -10.272751      -279.5358
   3   2.0000     -10.225711      -278.2557
   4   2.0000     -10.225213      -278.2422
   5   2.0000      -1.153427       -31.3863
   6   2.0000      -0.824481       -22.4353
   7   2.0000      -0.769314       -20.9341
   8   2.0000      -0.617465       -16.8021
   9   2.0000      -0.580223       -15.7887
  10   2.0000      -0.557534       -15.1713
  11   2.0000      -0.477844       -13.0028
  12   2.0000      -0.453407       -12.3378
  13   2.0000      -0.415525       -11.3070
  14   2.0000      -0.409671       -11.1477
  15   2.0000      -0.386264       -10.5108
  16   2.0000      -0.298137        -8.1127
  17   2.0000      -0.243922        -6.6375
  18   0.0000       0.005629         0.1532
  19   0.0000       0.006005         0.1634
  20   0.0000       0.022060         0.6003
  21   0.0000       0.024533         0.6676
  22   0.0000       0.041264         1.1229

MULLIKEN ATOMIC CHARGES
-----------------------
   0 C :   -0.391715
   1 C :   -0.522601
   2 C :   -0.521858
   3 C :   -0.391802
   4 O :   -0.216547
   5 H :    0.605833
   6 H :    0.416371
   7 H :    0.416337
   8 H :    0.605982
Sum of atomic charges:    0.0000000

LOEWDIN ATOMIC CHARGES
----------------------
   0 C :   -0.067273
   1 C :    0.144562
   2 C :    0.144588
   3 C :   -0.067235
   4 O :    0.566433
   5 H :   -0.180395
   6 H :   -0.180137
   7 H :   -0.180141
   8 H :   -0.180401

  Mayer bond orders larger than 0.100000
B(  0-C ,  1-C ) :   1.3218 B(  0-C ,  3-C ) :   0.1169 B(  0-C ,  4-O ) :   1.0328
B(  0-C ,  8-H ) :   0.5567 B(  1-C ,  2-C ) :   1.1861 B(  1-C ,  7-H ) :   0.8687
B(  2-C ,  3-C ) :   1.3212 B(  2-C ,  6-H ) :   0.8690 B(  3-C ,  4-O ) :   1.0327
B(  3-C ,  5-H ) :   0.5571

Dispersion correction           -0.005366905
FINAL SINGLE POINT ENERGY      -229.852848971865

DIPOLE MOMENT
-------------

Method             : SCF
Type of density    : Electron Density
Multiplicity       :   1
Irrep              :   0
Energy             :  -229.8474820669686380 Eh
Relativity type    :
Basis              : AO
                                X                 Y                 Z
Electronic contribution:     -1.626094351       0.000105717       0.001291718
Nuclear contribution   :      1.895786675       0.000056296      -0.000025910
                        -----------------------------------------
Total Dipole Moment    :      0.269692324       0.000162013       0.001265807
                        -----------------------------------------
Magnitude (a.u.)       :      0.269695343
Magnitude (Debye)      :      0.685511083

Rotational constants in cm-1:             0.318415             0.310107             0.157103
Rotational constants in MHz :          9545.838950          9296.781610          4709.832145

                             ****ORCA TERMINATED NORMALLY****
TOTAL RUN TIME: 0 days 0 hours 1 minutes 7 seconds 301 msec
