                         Program Version 6.0.0  -   RELEASE  -
|  1> !PBE0 freq def2-SV(p) d3 TightSCF SlowConv RIJCOSX defgrid2
|  2>
|  3> %pal
|  4> nprocs 12
|  5> end
|  6>
|  7> %scf
|  8> MaxIter 1500
|  9> end
| 10>
| 11> %maxcore 5000
| 12>
| 13> !CPCM
| 14> %cpcm smd true
| 15> SMDsolvent "MeCN"
| 16> surfacetype gepol_ses
| 17> rsolv 2.19
| 18> end
| 19>
| 20> * xyz 1 2
| 21> C           1.37457252049088     -0.84886394507344      0.60560379745167
| 22> C           2.64881180850866     -1.38674384086784      0.61832478523316
| 23> C           3.72713658263739     -0.66793326762201      0.08073120284338
| 24> C           3.53563885853271      0.61724437322941     -0.45384182056619
| 25> C           2.27456205043527      1.18072054284865     -0.46387082645839
| 26> C           1.19170014388732      0.42987994221997      0.03730504064723
| 27> O           0.00002952803409      1.04470736123936     -0.00046997442410
| 28> C          -1.19171343063007      0.42983024577614     -0.03783502395609
| 29> C          -2.27442512761479      1.18066667241299      0.46355724659331
| 30> C          -3.53549512970115      0.61711656380479      0.45401116315757
| 31> C          -3.72713489927383     -0.66810865660972     -0.08035112130242
| 32> C          -2.64895840200449     -1.38690536901125     -0.61821658242069
| 33> C          -1.37471344114782     -0.84894798283421     -0.60593002827574
| 34> H          -0.54134727696904     -1.37264182211037     -1.07915712161661
| 35> H          -2.81676904947102     -2.36560313338343     -1.07427334110602
| 36> H          -4.72979788801863     -1.10301239675587     -0.09985546105962
| 37> H          -4.38361338382896      1.17310286143975      0.86095146223340
| 38> H          -2.08517835163167      2.17535033101752      0.87333169045559
| 39> H           2.08537531440382      2.17534794787629     -0.87381708937335
| 40> H           4.38387947394574      1.17322216485131     -0.86053976520012
| 41> H           4.72981199705250     -1.10279773538763      0.10059939827784
| 42> H           2.81655760174479     -2.36537220674383      1.07454333070938
| 43> H           0.54110130061830     -1.37250295031658      1.07866463815683
| 44> *
| 45>
| 46>                          ****END OF INPUT****

CARTESIAN COORDINATES (ANGSTROEM)
---------------------------------
  C      1.374573   -0.848864    0.605604
  C      2.648812   -1.386744    0.618325
  C      3.727137   -0.667933    0.080731
  C      3.535639    0.617244   -0.453842
  C      2.274562    1.180721   -0.463871
  C      1.191700    0.429880    0.037305
  O      0.000030    1.044707   -0.000470
  C     -1.191713    0.429830   -0.037835
  C     -2.274425    1.180667    0.463557
  C     -3.535495    0.617117    0.454011
  C     -3.727135   -0.668109   -0.080351
  C     -2.648958   -1.386905   -0.618217
  C     -1.374713   -0.848948   -0.605930
  H     -0.541347   -1.372642   -1.079157
  H     -2.816769   -2.365603   -1.074273
  H     -4.729798   -1.103012   -0.099855
  H     -4.383613    1.173103    0.860951
  H     -2.085178    2.175350    0.873332
  H      2.085375    2.175348   -0.873817
  H      4.383879    1.173222   -0.860540
  H      4.729812   -1.102798    0.100599
  H      2.816558   -2.365372    1.074543
  H      0.541101   -1.372503    1.078665

 Total Charge           Charge          ....    1
 Multiplicity           Mult            ....    2
 Number of Electrons    NEL             ....   89
 Basis Dimension        Dim             ....  202

ORBITAL ENERGIES
----------------
                 SPIN UP ORBITALS
  NO   OCC          E(Eh)            E(eV)
   0   1.0000     -19.351749      -526.5879
   1   1.0000     -10.358149      -281.8596
   2   1.0000     -10.358058      -281.8571
   3   1.0000     -10.281491      -279.7736
   4   1.0000     -10.281444      -279.7723
   5   1.0000     -10.279080      -279.7080
   6   1.0000     -10.278991      -279.7056
   7   1.0000     -10.276953      -279.6501
   8   1.0000     -10.276904      -279.6488
   9   1.0000     -10.269205      -279.4393
  10   1.0000     -10.269169      -279.4383
  11   1.0000     -10.268762      -279.4272
  12   1.0000     -10.268721      -279.4261
  13   1.0000      -1.200764       -32.6745
  14   1.0000      -0.931085       -25.3361
  15   1.0000      -0.910006       -24.7625
  16   1.0000      -0.838437       -22.8150
  17   1.0000      -0.810226       -22.0474
  18   1.0000      -0.802577       -21.8392
  19   1.0000      -0.779498       -21.2112
  20   1.0000      -0.712573       -19.3901
  21   1.0000      -0.677643       -18.4396
  22   1.0000      -0.656205       -17.8562
  23   1.0000      -0.630033       -17.1441
  24   1.0000      -0.605298       -16.4710
  25   1.0000      -0.559326       -15.2200
  26   1.0000      -0.550088       -14.9686
  27   1.0000      -0.545638       -14.8476
  28   1.0000      -0.534062       -14.5326
  29   1.0000      -0.494385       -13.4529
  30   1.0000      -0.486917       -13.2497
  31   1.0000      -0.476033       -12.9535
  32   1.0000      -0.475262       -12.9325
  33   1.0000      -0.466932       -12.7059
  34   1.0000      -0.461656       -12.5623
  35   1.0000      -0.425832       -11.5875
  36   1.0000      -0.414127       -11.2690
  37   1.0000      -0.409117       -11.1326
  38   1.0000      -0.404815       -11.0156
  39   1.0000      -0.386953       -10.5295
  40   1.0000      -0.384819       -10.4714
  41   1.0000      -0.314364        -8.5543
  42   1.0000      -0.309787        -8.4297
  43   1.0000      -0.305792        -8.3210
  44   1.0000      -0.281390        -7.6570
  45   0.0000      -0.057132        -1.5547
  46   0.0000      -0.041595        -1.1319
  47   0.0000      -0.035539        -0.9671
  48   0.0000      -0.028960        -0.7880
  49   0.0000       0.063652         1.7321

                 SPIN DOWN ORBITALS
  NO   OCC          E(Eh)            E(eV)
   0   1.0000     -19.343999      -526.3770
   1   1.0000     -10.357306      -281.8366
   2   1.0000     -10.357224      -281.8344
   3   1.0000     -10.279484      -279.7190
   4   1.0000     -10.279437      -279.7177
   5   1.0000     -10.275377      -279.6072
   6   1.0000     -10.275303      -279.6052
   7   1.0000     -10.275146      -279.6009
   8   1.0000     -10.275102      -279.5997
   9   1.0000     -10.270284      -279.4686
  10   1.0000     -10.270246      -279.4676
  11   1.0000     -10.269736      -279.4537
  12   1.0000     -10.269692      -279.4525
  13   1.0000      -1.187331       -32.3089
  14   1.0000      -0.926063       -25.1995
  15   1.0000      -0.904961       -24.6252
  16   1.0000      -0.833703       -22.6862
  17   1.0000      -0.807703       -21.9787
  18   1.0000      -0.800331       -21.7781
  19   1.0000      -0.770220       -20.9588
  20   1.0000      -0.706538       -19.2259
  21   1.0000      -0.675401       -18.3786
  22   1.0000      -0.652129       -17.7453
  23   1.0000      -0.626848       -17.0574
  24   1.0000      -0.602918       -16.4062
  25   1.0000      -0.556170       -15.1342
  26   1.0000      -0.542602       -14.7649
  27   1.0000      -0.533996       -14.5308
  28   1.0000      -0.525989       -14.3129
  29   1.0000      -0.487590       -13.2680
  30   1.0000      -0.485203       -13.2030
  31   1.0000      -0.473489       -12.8843
  32   1.0000      -0.473460       -12.8835
  33   1.0000      -0.462853       -12.5949
  34   1.0000      -0.455191       -12.3864
  35   1.0000      -0.414862       -11.2890
  36   1.0000      -0.412575       -11.2267
  37   1.0000      -0.404033       -10.9943
  38   1.0000      -0.395404       -10.7595
  39   1.0000      -0.381896       -10.3919
  40   1.0000      -0.377510       -10.2726
  41   1.0000      -0.305784        -8.3208
  42   1.0000      -0.301247        -8.1973
  43   1.0000      -0.286340        -7.7917
  44   0.0000      -0.204971        -5.5776
  45   0.0000      -0.042951        -1.1688
  46   0.0000      -0.033969        -0.9243
  47   0.0000      -0.026592        -0.7236
  48   0.0000      -0.008956        -0.2437

MULLIKEN ATOMIC CHARGES AND SPIN POPULATIONS
--------------------------------------------
   0 C :   -0.140947    0.133823
   1 C :   -0.100845   -0.089608
   2 C :   -0.040876    0.263122
   3 C :   -0.102523   -0.082148
   4 C :   -0.088882    0.121970
   5 C :    0.232166    0.059787
   6 O :   -0.183371    0.226121
   7 C :    0.231483    0.059264
   8 C :   -0.088826    0.121664
   9 C :   -0.102627   -0.081943
  10 C :   -0.041093    0.262201
  11 C :   -0.101138   -0.089428
  12 C :   -0.140686    0.133567
  13 H :    0.185577   -0.006753
  14 H :    0.161891    0.003671
  15 H :    0.164215   -0.012697
  16 H :    0.162073    0.002929
  17 H :    0.160109   -0.006311
  18 H :    0.160156   -0.006329
  19 H :    0.162120    0.002934
  20 H :    0.164285   -0.012742
  21 H :    0.161930    0.003674
  22 H :    0.185807   -0.006769
Sum of atomic charges         :    1.0000000

LOEWDIN ATOMIC CHARGES AND SPIN POPULATIONS
-------------------------------------------
   0 C :   -0.109382    0.110206
   1 C :   -0.097763   -0.046701
   2 C :   -0.051457    0.207357
   3 C :   -0.097171   -0.041978
   4 C :   -0.093949    0.101361
   5 C :    0.071905    0.065057
   6 O :    0.084788    0.229043
   7 C :    0.071438    0.064602
   8 C :   -0.094066    0.101084
   9 C :   -0.097242   -0.041891
  10 C :   -0.051738    0.206613
  11 C :   -0.097798   -0.046633
  12 C :   -0.109500    0.109967
  13 H :    0.172518   -0.002955
  14 H :    0.164225    0.001999
  15 H :    0.164157   -0.006219
  16 H :    0.163705    0.001471
  17 H :    0.171254   -0.003318
  18 H :    0.171277   -0.003328
  19 H :    0.163733    0.001473
  20 H :    0.164194   -0.006242
  21 H :    0.164245    0.001999
  22 H :    0.172627   -0.002966

  Mayer bond orders larger than 0.100000
B(  0-C ,  1-C ) :   1.4409 B(  0-C ,  5-C ) :   1.2373 B(  0-C , 22-H ) :   0.9394
B(  1-C ,  2-C ) :   1.3230 B(  1-C , 21-H ) :   0.9537 B(  2-C ,  3-C ) :   1.3087
B(  2-C , 20-H ) :   0.9561 B(  3-C ,  4-C ) :   1.4379 B(  3-C , 19-H ) :   0.9560
B(  4-C ,  5-C ) :   1.2773 B(  4-C , 18-H ) :   0.9572 B(  5-C ,  6-O ) :   1.0920
B(  6-O ,  7-C ) :   1.0913 B(  7-C ,  8-C ) :   1.2776 B(  7-C , 12-C ) :   1.2376
B(  8-C ,  9-C ) :   1.4377 B(  8-C , 17-H ) :   0.9573 B(  9-C , 10-C ) :   1.3089
B(  9-C , 16-H ) :   0.9560 B( 10-C , 11-C ) :   1.3234 B( 10-C , 15-H ) :   0.9561
B( 11-C , 12-C ) :   1.4408 B( 11-C , 14-H ) :   0.9537 B( 12-C , 13-H ) :   0.9395

Dispersion correction           -0.023539174
FINAL SINGLE POINT ENERGY      -537.293390444570

DIPOLE MOMENT
-------------

Method             : SCF
Type of density    : Electron Density
Multiplicity       :   2
Irrep              :   0
Energy             :  -537.2698512705442226 Eh
Relativity type    :
Basis              : AO
                                X                 Y                 Z
Electronic contribution:      0.005293013       2.161358990      -0.000388636
Nuclear contribution   :      0.000004020      -2.645032806       0.001142893
                        -----------------------------------------
Total Dipole Moment    :      0.005297033      -0.483673817       0.000754257
                        -----------------------------------------
Magnitude (a.u.)       :      0.483703409
Magnitude (Debye)      :      1.229476359

VIBRATIONAL FREQUENCIES
-----------------------

Scaling factor for frequencies =  1.000000000  (already applied!)

     0:       0.00 cm**-1
     1:       0.00 cm**-1
     2:       0.00 cm**-1
     3:       0.00 cm**-1
     4:       0.00 cm**-1
     5:       0.00 cm**-1
     6:      32.42 cm**-1
     7:      40.54 cm**-1
     8:      97.25 cm**-1
     9:     214.68 cm**-1
    10:     228.79 cm**-1
    11:     316.98 cm**-1
    12:     361.36 cm**-1
    13:     396.59 cm**-1
    14:     417.47 cm**-1
    15:     476.44 cm**-1
    16:     479.16 cm**-1
    17:     552.14 cm**-1
    18:     586.47 cm**-1
    19:     600.18 cm**-1
    20:     638.20 cm**-1
    21:     669.56 cm**-1
    22:     673.53 cm**-1
    23:     777.18 cm**-1
    24:     779.72 cm**-1
    25:     811.98 cm**-1
    26:     814.93 cm**-1
    27:     830.75 cm**-1
    28:     896.20 cm**-1
    29:     944.85 cm**-1
    30:     954.39 cm**-1
    31:     981.86 cm**-1
    32:    1004.00 cm**-1
    33:    1006.09 cm**-1
    34:    1010.61 cm**-1
    35:    1028.96 cm**-1
    36:    1030.21 cm**-1
    37:    1032.04 cm**-1
    38:    1038.93 cm**-1
    39:    1071.66 cm**-1
    40:    1102.03 cm**-1
    41:    1107.94 cm**-1
    42:    1147.47 cm**-1
    43:    1148.38 cm**-1
    44:    1167.46 cm**-1
    45:    1209.46 cm**-1
    46:    1274.17 cm**-1
    47:    1315.68 cm**-1
    48:    1330.75 cm**-1
    49:    1421.60 cm**-1
    50:    1426.80 cm**-1
    51:    1467.56 cm**-1
    52:    1493.63 cm**-1
    53:    1503.49 cm**-1
    54:    1511.17 cm**-1
    55:    1591.46 cm**-1
    56:    1597.28 cm**-1
    57:    1616.50 cm**-1
    58:    1688.64 cm**-1
    59:    3225.46 cm**-1
    60:    3225.94 cm**-1
    61:    3230.81 cm**-1
    62:    3232.15 cm**-1
    63:    3235.88 cm**-1
    64:    3237.19 cm**-1
    65:    3241.72 cm**-1
    66:    3242.60 cm**-1
    67:    3245.75 cm**-1
    68:    3246.72 cm**-1

IR SPECTRUM
-----------

 Mode   freq       eps      Int      T**2         TX        TY        TZ
       cm**-1   L/(mol*cm) km/mol    a.u.
----------------------------------------------------------------------------
  6:     32.42   0.000109    0.55  0.001049  (-0.026481  0.018314 -0.003485)
  7:     40.54   0.018823   95.12  0.144902  ( 0.376967  0.000887  0.052887)
  8:     97.25   0.000045    0.23  0.000146  ( 0.000999  0.012035  0.000068)
  9:    214.68   0.111817  565.08  0.162538  ( 0.402807  0.000169  0.016873)
 10:    228.79   0.000052    0.26  0.000071  ( 0.008280  0.001376  0.000269)
 11:    316.98   0.000112    0.57  0.000110  ( 0.000566  0.010491  0.000044)
 12:    361.36   0.063042  318.59  0.054443  (-0.232336  0.000020 -0.021510)
 13:    396.59   0.036751  185.72  0.028918  (-0.170024  0.000024 -0.003196)
 14:    417.47   0.000051    0.26  0.000038  ( 0.002238 -0.005776  0.000142)
 15:    476.44   0.328046  1657.81  0.214865  ( 0.463533 -0.000694 -0.001235)
 16:    479.16   0.001291    6.53  0.000841  (-0.015672 -0.024403 -0.000019)
 17:    552.14   0.119250  602.64  0.067399  ( 0.258367 -0.000091  0.025398)
 18:    586.47   0.000057    0.29  0.000030  (-0.000326 -0.005503 -0.000269)
 19:    600.18   0.016245   82.09  0.008446  ( 0.090532 -0.000041  0.015821)
 20:    638.20   0.000514    2.60  0.000252  ( 0.000400 -0.015850 -0.000363)
 21:    669.56   0.020622  104.21  0.009611  (-0.033075  0.001939  0.092269)
 22:    673.53   0.004443   22.45  0.002059  (-0.001378 -0.045174  0.004011)
 23:    777.18   0.000787    3.98  0.000316  (-0.000066 -0.017780 -0.000042)
 24:    779.72   0.177937  899.22  0.071215  (-0.250277  0.000001 -0.092607)
 25:    811.98   0.004679   23.65  0.001798  ( 0.003952  0.042219 -0.000456)
 26:    814.93   0.066740  337.27  0.025557  ( 0.159299 -0.001537 -0.013355)
 27:    830.75   0.000749    3.79  0.000281  ( 0.001828  0.016674 -0.000154)
 28:    896.20   0.188885  954.55  0.065771  (-0.256427 -0.000008 -0.004029)
 29:    944.85   0.076262  385.40  0.025188  (-0.155827 -0.000122 -0.030097)
 30:    954.39   0.001086    5.49  0.000355  (-0.001724  0.018765 -0.000177)
 31:    981.86   0.823337  4160.81  0.261681  (-0.511512 -0.000065 -0.006048)
 32:   1004.00   0.000548    2.77  0.000170  ( 0.012992 -0.000036 -0.001203)
 33:   1006.09   0.000006    0.03  0.000002  ( 0.000181  0.001388  0.000074)
 34:   1010.61   0.000010    0.05  0.000003  (-0.000351  0.001758  0.000016)
 35:   1028.96   0.084431  426.68  0.025606  ( 0.160019 -0.000153  0.000513)
 36:   1030.21   0.000154    0.78  0.000047  ( 0.005892  0.003445  0.000052)
 37:   1032.04   0.044356  224.16  0.013412  ( 0.115702 -0.000016  0.005017)
 38:   1038.93   0.000001    0.01  0.000000  (-0.000334  0.000454 -0.000014)
 39:   1071.66   1.017568  5142.37  0.296313  ( 0.544256  0.000056  0.009876)
 40:   1102.03   0.018022   91.08  0.005103  (-0.066448  0.000210 -0.026228)
 41:   1107.94   0.007509   37.95  0.002115  ( 0.000840  0.045982  0.000186)
 42:   1147.47   0.000411    2.08  0.000112  ( 0.000128  0.010572 -0.000077)
 43:   1148.38   0.001176    5.94  0.000320  ( 0.016948 -0.000086 -0.005693)
 44:   1167.46   0.000019    0.10  0.000005  (-0.000455  0.002221 -0.000047)
 45:   1209.46   0.409401  2068.94  0.105633  ( 0.324938 -0.000043  0.006975)
 46:   1274.17   0.000762    3.85  0.000187  ( 0.000338  0.013655  0.000001)
 47:   1315.68   0.000566    2.86  0.000134  ( 0.011413  0.000127 -0.002005)
 48:   1330.75   0.000455    2.30  0.000107  ( 0.000039 -0.010324  0.000041)
 49:   1421.60   0.025723  130.00  0.005647  ( 0.073451 -0.000979 -0.015834)
 50:   1426.80   0.008216   41.52  0.001797  (-0.001631 -0.042357  0.000357)
 51:   1467.56   0.073797  372.94  0.015692  (-0.125269 -0.000034 -0.000247)
 52:   1493.63   0.003989   20.16  0.000833  ( 0.021247  0.000101 -0.019544)
 53:   1503.49   0.001950    9.85  0.000405  (-0.000102  0.020116  0.000066)
 54:   1511.17   0.010213   51.61  0.002109  ( 0.000433 -0.045922 -0.000053)
 55:   1591.46   0.048569  245.45  0.009524  ( 0.097499  0.000349 -0.004186)
 56:   1597.28   0.001350    6.82  0.000264  ( 0.002632 -0.016027 -0.000128)
 57:   1616.50   0.537869  2718.17  0.103835  ( 0.322070 -0.000020  0.010318)
 58:   1688.64   0.000162    0.82  0.000030  (-0.000031  0.005469 -0.000039)
 59:   3225.46   0.001841    9.30  0.000178  ( 0.013282 -0.000110 -0.001288)
 60:   3225.94   0.000008    0.04  0.000001  (-0.000826 -0.000240  0.000073)
 61:   3230.81   0.001621    8.19  0.000157  ( 0.010868 -0.000598 -0.006172)
 62:   3232.15   0.001416    7.15  0.000137  (-0.000454 -0.011677  0.000338)
 63:   3235.88   0.000512    2.59  0.000049  ( 0.007021 -0.000085  0.000205)
 64:   3237.19   0.000194    0.98  0.000019  (-0.000216 -0.004317  0.000090)
 65:   3241.72   0.004333   21.90  0.000417  ( 0.020006 -0.000340 -0.004094)
 66:   3242.60   0.000904    4.57  0.000087  (-0.000830 -0.009287  0.000290)
 67:   3245.75   0.025553  129.13  0.002457  ( 0.049505  0.000086  0.002450)
 68:   3246.72   0.000045    0.23  0.000004  (-0.000741  0.001933  0.000020)

--------------------------
THERMOCHEMISTRY AT 298.15K
--------------------------

Temperature         ...   298.15 K
Pressure            ...     1.00 atm
Total Mass          ...   170.21 AMU
Quasi RRHO          ...     True
Cut-Off Frequency   ...     1.00 cm^-1

Throughout the following assumptions are being made:
  (1) The electronic state is orbitally nondegenerate
      but the spin degeneracy is treated
  (2) There are no thermally accessible electronically excited states
  (3) Hindered rotations indicated by low frequency modes are not
      treated as such but are treated as vibrations and this may
      cause some error
  (4) All equations used are the standard statistical mechanics
      equations for an ideal gas
  (5) All vibrations are strictly harmonic

freq.      32.42  E(vib)   ...       0.55
freq.      40.54  E(vib)   ...       0.54
freq.      97.25  E(vib)   ...       0.46
freq.     214.68  E(vib)   ...       0.34
freq.     228.79  E(vib)   ...       0.32
freq.     316.98  E(vib)   ...       0.25
freq.     361.36  E(vib)   ...       0.22
freq.     396.59  E(vib)   ...       0.20
freq.     417.47  E(vib)   ...       0.18
freq.     476.44  E(vib)   ...       0.15
freq.     479.16  E(vib)   ...       0.15
freq.     552.14  E(vib)   ...       0.12
freq.     586.47  E(vib)   ...       0.11
freq.     600.18  E(vib)   ...       0.10
freq.     638.20  E(vib)   ...       0.09
freq.     669.56  E(vib)   ...       0.08
freq.     673.53  E(vib)   ...       0.08
freq.     777.18  E(vib)   ...       0.05
freq.     779.72  E(vib)   ...       0.05
freq.     811.98  E(vib)   ...       0.05
freq.     814.93  E(vib)   ...       0.05
freq.     830.75  E(vib)   ...       0.04
freq.     896.20  E(vib)   ...       0.03
freq.     944.85  E(vib)   ...       0.03
freq.     954.39  E(vib)   ...       0.03
freq.     981.86  E(vib)   ...       0.02
freq.    1004.00  E(vib)   ...       0.02
freq.    1006.09  E(vib)   ...       0.02
freq.    1010.61  E(vib)   ...       0.02
freq.    1028.96  E(vib)   ...       0.02
freq.    1030.21  E(vib)   ...       0.02
freq.    1032.04  E(vib)   ...       0.02
freq.    1038.93  E(vib)   ...       0.02
freq.    1071.66  E(vib)   ...       0.02
freq.    1102.03  E(vib)   ...       0.02
freq.    1107.94  E(vib)   ...       0.02
freq.    1147.47  E(vib)   ...       0.01
freq.    1148.38  E(vib)   ...       0.01
freq.    1167.46  E(vib)   ...       0.01
freq.    1209.46  E(vib)   ...       0.01
freq.    1274.17  E(vib)   ...       0.01
freq.    1315.68  E(vib)   ...       0.01
freq.    1330.75  E(vib)   ...       0.01
freq.    1421.60  E(vib)   ...       0.00
freq.    1426.80  E(vib)   ...       0.00
freq.    1467.56  E(vib)   ...       0.00
freq.    1493.63  E(vib)   ...       0.00
freq.    1503.49  E(vib)   ...       0.00
freq.    1511.17  E(vib)   ...       0.00
freq.    1591.46  E(vib)   ...       0.00
freq.    1597.28  E(vib)   ...       0.00
freq.    1616.50  E(vib)   ...       0.00
freq.    1688.64  E(vib)   ...       0.00
freq.    3225.46  E(vib)   ...       0.00
freq.    3225.94  E(vib)   ...       0.00
freq.    3230.81  E(vib)   ...       0.00
freq.    3232.15  E(vib)   ...       0.00
freq.    3235.88  E(vib)   ...       0.00
freq.    3237.19  E(vib)   ...       0.00
freq.    3241.72  E(vib)   ...       0.00
freq.    3242.60  E(vib)   ...       0.00
freq.    3245.75  E(vib)   ...       0.00
freq.    3246.72  E(vib)   ...       0.00

------------
INNER ENERGY
------------

The inner energy is: U= E(el) + E(ZPE) + E(vib) + E(rot) + E(trans)
    E(el)   - is the total energy from the electronic structure calculation
              = E(kin-el) + E(nuc-el) + E(el-el) + E(nuc-nuc)
    E(ZPE)  - the the zero temperature vibrational energy from the frequency calculation
    E(vib)  - the the finite temperature correction to E(ZPE) due to population
              of excited vibrational states
    E(rot)  - is the rotational thermal energy
    E(trans)- is the translational thermal energy

Summary of contributions to the inner energy U:
Electronic energy                ...   -537.29339044 Eh
Zero point energy                ...      0.18517363 Eh     116.20 kcal/mol
Thermal vibrational correction   ...      0.00730515 Eh       4.58 kcal/mol
Thermal rotational correction    ...      0.00141627 Eh       0.89 kcal/mol
Thermal translational correction ...      0.00141627 Eh       0.89 kcal/mol
-----------------------------------------------------------------------
Total thermal energy                   -537.09807912 Eh

Summary of corrections to the electronic energy:
(perhaps to be used in another calculation)
Total thermal correction                  0.01013769 Eh       6.36 kcal/mol
Non-thermal (ZPE) correction              0.18517363 Eh     116.20 kcal/mol
-----------------------------------------------------------------------
Total correction                          0.19531132 Eh     122.56 kcal/mol

--------
ENTHALPY
--------

The enthalpy is H = U + kB*T
                kB is Boltzmann's constant
Total thermal energy              ...   -537.09807912 Eh
Thermal Enthalpy correction       ...      0.00094421 Eh       0.59 kcal/mol
-----------------------------------------------------------------------
Total Enthalpy                    ...   -537.09713491 Eh

Note: Only C1 symmetry has been detected, increase convergence thresholds
      if your molecule has a higher symmetry. Symmetry factor of 1.0 is
      used for the rotational entropy correction.

Note: Rotational entropy computed according to Herzberg
Infrared and Raman Spectra, Chapter V,1, Van Nostrand Reinhold, 1945
Point Group:  C1, Symmetry Number:   1
Rotational constants in cm-1:     0.082391     0.014639     0.013128

Vibrational entropy computed according to the QRRHO of S. Grimme
Chem.Eur.J. 2012 18 9955 using a reference frequency of 100.0 cm-1

-------
ENTROPY
-------

The entropy contributions are T*S = T*(S(el)+S(vib)+S(rot)+S(trans))
     S(el)   - electronic entropy
     S(vib)  - vibrational entropy
     S(rot)  - rotational entropy
     S(trans)- translational entropy
The entropies will be listed as multiplied by the temperature to get
units of energy

Electronic entropy                ...      0.00065446 Eh      0.41 kcal/mol
Vibrational entropy               ...      0.01227531 Eh      7.70 kcal/mol
Rotational entropy                ...      0.01472898 Eh      9.24 kcal/mol
Translational entropy             ...      0.01962451 Eh     12.31 kcal/mol
-----------------------------------------------------------------------
Final entropy term                ...      0.04728327 Eh     29.67 kcal/mol

In case the symmetry of your molecule has not been determined correctly

                             ****ORCA TERMINATED NORMALLY****
TOTAL RUN TIME: 0 days 0 hours 10 minutes 58 seconds 881 msec
