                         Program Version 6.0.0  -   RELEASE  -
|  1> !PBE0 def2-SV(p) Opt Freq d3 TightSCF SlowConv RIJCOSX defgrid2
|  2>
|  3> %pal
|  4> nprocs 15
|  5> end
|  6>
|  7> %scf
|  8> MaxIter 1500
|  9> end
| 10>
| 11> %maxcore 3500
| 12>
| 13>
| 14>
| 15> * xyz -1 2
| 16> C        0.000000000      0.000000000      0.000000000
| 17> C       -1.156068693     -0.354690359      0.698164000
| 18> C        1.156068693      0.354690359      0.698164000
| 19> H       -2.055493799     -0.630640582      0.154991000
| 20> H        2.055493799      0.630640582      0.154991000
| 21> C       -1.156068693     -0.354690359      2.094494000
| 22> C        1.156068693      0.354690359      2.094494000
| 23> H       -2.055493799     -0.630640582      2.637667000
| 24> C        0.000000000      0.000000000      2.792658000
| 25> O        0.000000000      0.000000000      4.232658000
| 26> O        0.000000000      0.000000000     -1.440000000
| 27> C        2.431088542      0.745875806      2.864492916
| 28> H        2.235735560      0.838618630      3.938897139
| 29> H        3.220502752     -0.003410109      2.736027487
| 30> H        2.828114929      1.706492884      2.517083147
| 31> *
| 32>
| 33>                          ****END OF INPUT****
 Total Charge           Charge          ....   -1
 Multiplicity           Mult            ....    2
 Number of Electrons    NEL             ....   65
Dispersion correction           -0.013253519
FINAL SINGLE POINT ENERGY      -419.991657478818
Dispersion correction             ... done (  0.1 sec)
Dispersion correction           -0.013337961
FINAL SINGLE POINT ENERGY      -420.034178841699
Dispersion correction             ... done (  0.1 sec)
Dispersion correction           -0.013381507
FINAL SINGLE POINT ENERGY      -420.047373635632
Dispersion correction             ... done (  0.1 sec)
FINAL SINGLE POINT ENERGY      -420.050256173064
FINAL SINGLE POINT ENERGY      -420.050742185102
FINAL SINGLE POINT ENERGY      -420.050792071376
FINAL SINGLE POINT ENERGY      -420.050817203608
FINAL SINGLE POINT ENERGY      -420.050926797487
FINAL SINGLE POINT ENERGY      -420.051087242597
FINAL SINGLE POINT ENERGY      -420.051287540267
FINAL SINGLE POINT ENERGY      -420.051561954981
FINAL SINGLE POINT ENERGY      -420.051768486557
FINAL SINGLE POINT ENERGY      -420.051850564215
FINAL SINGLE POINT ENERGY      -420.051938552390
FINAL SINGLE POINT ENERGY      -420.051956720136
Dispersion correction             ... done (  0.1 sec)
Dispersion correction           -0.013343115
FINAL SINGLE POINT ENERGY      -420.051958400617
Dispersion correction             ... done (  0.1 sec)
Dispersion correction           -0.013343377
FINAL SINGLE POINT ENERGY      -420.051958618639
Dispersion correction             ... done (  0.1 sec)
                    ***********************HURRAY********************

CARTESIAN COORDINATES (ANGSTROEM)
---------------------------------
  C     -0.039730    0.108928   -0.073385
  C     -1.160989   -0.369426    0.712092
  C      1.129506    0.469061    0.707663
  H     -2.060414   -0.649884    0.149971
  H      1.990927    0.834081    0.132934
  C     -1.112120   -0.469997    2.079624
  C      1.193825    0.374074    2.076223
  H     -1.972014   -0.834537    2.655224
  C      0.056097   -0.109709    2.854287
  O      0.103725   -0.201021    4.105624
  O     -0.074948    0.204345   -1.323511
  C      2.415078    0.753261    2.856748
  H      2.180967    1.543753    3.594123
  H      2.783898   -0.103501    3.451158
  H      3.226142    1.107509    2.196006

 Multiplicity           Mult            ....    2
 Number of Electrons    NEL             ....   65
 Basis Dimension        Dim             ....  138

ORBITAL ENERGIES
----------------
                 SPIN UP ORBITALS
  NO   OCC          E(Eh)            E(eV)
   0   1.0000     -18.995999      -516.9074
   1   1.0000     -18.993259      -516.8329
   2   1.0000     -10.113121      -275.1920
   3   1.0000     -10.112792      -275.1831
   4   1.0000     -10.083652      -274.3901
   5   1.0000     -10.076382      -274.1923
   6   1.0000     -10.065545      -273.8974
   7   1.0000     -10.064815      -273.8775
   8   1.0000     -10.063114      -273.8313
   9   1.0000      -0.847718       -23.0676
  10   1.0000      -0.843724       -22.9589
  11   1.0000      -0.681926       -18.5561
  12   1.0000      -0.625921       -17.0322
  13   1.0000      -0.557392       -15.1674
  14   1.0000      -0.519388       -14.1333
  15   1.0000      -0.446870       -12.1599
  16   1.0000      -0.409016       -11.1299
  17   1.0000      -0.334841        -9.1115
  18   1.0000      -0.317294        -8.6340
  19   1.0000      -0.292777        -7.9669
  20   1.0000      -0.291460        -7.9310
  21   1.0000      -0.267928        -7.2907
  22   1.0000      -0.253152        -6.8886
  23   1.0000      -0.247020        -6.7217
  24   1.0000      -0.246824        -6.7164
  25   1.0000      -0.220697        -6.0055
  26   1.0000      -0.217152        -5.9090
  27   1.0000      -0.206918        -5.6305
  28   1.0000      -0.129715        -3.5297
  29   1.0000      -0.107480        -2.9247
  30   1.0000      -0.083791        -2.2801
  31   1.0000      -0.077134        -2.0989
  32   1.0000      -0.003796        -0.1033
  33   0.0000       0.159092         4.3291
  34   0.0000       0.208585         5.6759
  35   0.0000       0.218294         5.9401
  36   0.0000       0.239066         6.5053
  37   0.0000       0.251870         6.8537

                 SPIN DOWN ORBITALS
  NO   OCC          E(Eh)            E(eV)
   0   1.0000     -18.988048      -516.6911
   1   1.0000     -18.984944      -516.6066
   2   1.0000     -10.112221      -275.1675
   3   1.0000     -10.112127      -275.1650
   4   1.0000     -10.083780      -274.3936
   5   1.0000     -10.075199      -274.1601
   6   1.0000     -10.064318      -273.8640
   7   1.0000     -10.063274      -273.8356
   8   1.0000     -10.061978      -273.8003
   9   1.0000      -0.834263       -22.7014
  10   1.0000      -0.829490       -22.5716
  11   1.0000      -0.675623       -18.3846
  12   1.0000      -0.622987       -16.9523
  13   1.0000      -0.553641       -15.0653
  14   1.0000      -0.509585       -13.8665
  15   1.0000      -0.442617       -12.0442
  16   1.0000      -0.405362       -11.0305
  17   1.0000      -0.333056        -9.0629
  18   1.0000      -0.312179        -8.4948
  19   1.0000      -0.289690        -7.8829
  20   1.0000      -0.286252        -7.7893
  21   1.0000      -0.266776        -7.2594
  22   1.0000      -0.251714        -6.8495
  23   1.0000      -0.239087        -6.5059
  24   1.0000      -0.227679        -6.1955
  25   1.0000      -0.212539        -5.7835
  26   1.0000      -0.204570        -5.5666
  27   1.0000      -0.187539        -5.1032
  28   1.0000      -0.098687        -2.6854
  29   1.0000      -0.086608        -2.3567
  30   1.0000      -0.076442        -2.0801
  31   1.0000      -0.069903        -1.9022
  32   0.0000       0.086466         2.3529
  33   0.0000       0.178098         4.8463
  34   0.0000       0.218701         5.9512
  35   0.0000       0.237752         6.4696
  36   0.0000       0.239960         6.5296

MULLIKEN ATOMIC CHARGES AND SPIN POPULATIONS
--------------------------------------------
   0 C :    0.215622    0.042150
   1 C :   -0.199112    0.111388
   2 C :   -0.279856    0.084481
   3 H :    0.031794   -0.007784
   4 H :    0.021439   -0.006157
   5 C :   -0.185940    0.077363
   6 C :   -0.079438    0.074261
   7 H :    0.030559   -0.006299
   8 C :    0.162582    0.067910
   9 O :   -0.367006    0.276811
  10 O :   -0.376006    0.289576
  11 C :   -0.272551   -0.010974
  12 H :    0.107831    0.003715
  13 H :    0.107698    0.003720
  14 H :    0.082383   -0.000161
Sum of atomic charges         :   -1.0000000

LOEWDIN ATOMIC CHARGES AND SPIN POPULATIONS
-------------------------------------------
   0 C :   -0.027491    0.059181
   1 C :   -0.186411    0.098365
   2 C :   -0.184459    0.072853
   3 H :    0.103195   -0.003591
   4 H :    0.102462   -0.002827
   5 C :   -0.185018    0.077501
   6 C :   -0.101832    0.070781
   7 H :    0.103701   -0.002918
   8 C :   -0.021346    0.076791
   9 O :   -0.308378    0.269306
  10 O :   -0.307320    0.281332
  11 C :   -0.325254   -0.003279
  12 H :    0.117950    0.003296
  13 H :    0.117912    0.003300
  14 H :    0.102290   -0.000091

  Mayer bond orders larger than 0.100000
B(  0-C ,  1-C ) :   1.1496 B(  0-C ,  2-C ) :   1.1210 B(  0-C , 10-O ) :   1.8110
B(  1-C ,  3-H ) :   0.9569 B(  1-C ,  5-C ) :   1.4774 B(  2-C ,  4-H ) :   0.9547
B(  2-C ,  6-C ) :   1.5221 B(  5-C ,  7-H ) :   0.9547 B(  5-C ,  8-C ) :   1.1713
B(  6-C ,  8-C ) :   1.0971 B(  6-C , 11-C ) :   1.0917 B(  8-C ,  9-O ) :   1.8747
B( 11-C , 12-H ) :   0.9384 B( 11-C , 13-H ) :   0.9384 B( 11-C , 14-H ) :   0.9523

Dispersion correction           -0.013343410
FINAL SINGLE POINT ENERGY      -420.051958658096

DIPOLE MOMENT
-------------

Method             : SCF
Type of density    : Electron Density
Multiplicity       :   2
Irrep              :   0
Energy             :  -420.0386152481518707 Eh
Relativity type    :
Basis              : AO
                                X                 Y                 Z
Electronic contribution:     -3.618626994      -1.130161046      -2.238376431
Nuclear contribution   :      4.080055806       1.268229623       2.595706688
                        -----------------------------------------
Total Dipole Moment    :      0.461428812       0.138068577       0.357330257
                        -----------------------------------------
Magnitude (a.u.)       :      0.599720263
Magnitude (Debye)      :      1.524367764

VIBRATIONAL FREQUENCIES
-----------------------

Scaling factor for frequencies =  1.000000000  (already applied!)

     0:       0.00 cm**-1
     1:       0.00 cm**-1
     2:       0.00 cm**-1
     3:       0.00 cm**-1
     4:       0.00 cm**-1
     5:       0.00 cm**-1
     6:     125.19 cm**-1
     7:     130.63 cm**-1
     8:     204.90 cm**-1
     9:     286.78 cm**-1
    10:     341.80 cm**-1
    11:     389.63 cm**-1
    12:     431.05 cm**-1
    13:     456.44 cm**-1
    14:     506.28 cm**-1
    15:     600.97 cm**-1
    16:     604.23 cm**-1
    17:     729.40 cm**-1
    18:     773.69 cm**-1
    19:     806.44 cm**-1
    20:     830.10 cm**-1
    21:     901.65 cm**-1
    22:     931.29 cm**-1
    23:     968.70 cm**-1
    24:    1008.29 cm**-1
    25:    1056.03 cm**-1
    26:    1092.82 cm**-1
    27:    1167.77 cm**-1
    28:    1227.36 cm**-1
    29:    1262.53 cm**-1
    30:    1360.21 cm**-1
    31:    1396.64 cm**-1
    32:    1450.44 cm**-1
    33:    1456.96 cm**-1
    34:    1483.62 cm**-1
    35:    1557.26 cm**-1
    36:    1597.83 cm**-1
    37:    1621.81 cm**-1
    38:    1719.45 cm**-1
    39:    3014.72 cm**-1
    40:    3088.25 cm**-1
    41:    3114.24 cm**-1
    42:    3149.62 cm**-1
    43:    3151.53 cm**-1
    44:    3175.80 cm**-1

IR SPECTRUM
-----------

 Mode   freq       eps      Int      T**2         TX        TY        TZ
       cm**-1   L/(mol*cm) km/mol    a.u.
----------------------------------------------------------------------------
  6:    125.19   0.000018    0.09  0.000046  (-0.002214  0.006396  0.000516)
  7:    130.63   0.001753    8.86  0.004188  ( 0.022170 -0.060572 -0.005203)
  8:    204.90   0.000000    0.00  0.000000  ( 0.000171 -0.000362 -0.000053)
  9:    286.78   0.000353    1.78  0.000384  (-0.014006 -0.006224  0.012196)
 10:    341.80   0.000035    0.18  0.000032  (-0.001983  0.005242  0.000466)
 11:    389.63   0.001935    9.78  0.001549  ( 0.036731  0.012974  0.005653)
 12:    431.05   0.000180    0.91  0.000130  ( 0.004040 -0.010638 -0.000924)
 13:    456.44   0.000051    0.26  0.000035  ( 0.002992  0.001528 -0.004869)
 14:    506.28   0.000199    1.01  0.000123  ( 0.001486  0.001496 -0.010885)
 15:    600.97   0.000051    0.26  0.000026  ( 0.002714  0.001408 -0.004135)
 16:    604.23   0.000046    0.23  0.000024  ( 0.001739 -0.004503 -0.000444)
 17:    729.40   0.001218    6.16  0.000521  (-0.001151 -0.002403  0.022673)
 18:    773.69   0.000002    0.01  0.000001  (-0.000296  0.000927  0.000027)
 19:    806.44   0.004274   21.60  0.001654  (-0.001506 -0.003936  0.040451)
 20:    830.10   0.003695   18.67  0.001389  ( 0.012812 -0.034892 -0.002755)
 21:    901.65   0.005998   30.31  0.002076  (-0.015712  0.042597  0.003796)
 22:    931.29   0.001521    7.68  0.000510  (-0.004657 -0.003649  0.021785)
 23:    968.70   0.000001    0.01  0.000000  (-0.000215  0.000638  0.000080)
 24:   1008.29   0.003991   20.17  0.001235  ( 0.025151  0.007179  0.023478)
 25:   1056.03   0.000417    2.11  0.000123  ( 0.003762 -0.010396 -0.000986)
 26:   1092.82   0.001426    7.21  0.000407  ( 0.017809  0.005841  0.007475)
 27:   1167.77   0.002532   12.79  0.000676  ( 0.001882  0.002937 -0.025774)
 28:   1227.36   0.000545    2.76  0.000139  (-0.007525 -0.001974 -0.008838)
 29:   1262.53   0.002594   13.11  0.000641  (-0.022924 -0.007737 -0.007476)
 30:   1360.21   0.001199    6.06  0.000275  ( 0.013023  0.005526 -0.008652)
 31:   1396.64   0.000638    3.22  0.000142  (-0.007762 -0.002060 -0.008831)
 32:   1450.44   0.000855    4.32  0.000184  (-0.004597  0.012708  0.001134)
 33:   1456.96   0.001930    9.76  0.000413  ( 0.018870  0.006574  0.003765)
 34:   1483.62   0.001838    9.29  0.000387  ( 0.010568  0.002433  0.016402)
 35:   1557.26   0.005237   26.47  0.001049  ( 0.030443  0.011045  0.000824)
 36:   1597.83   0.001136    5.74  0.000222  (-0.013481 -0.005228  0.003566)
 37:   1621.81   0.067042  338.80  0.012900  ( 0.001017 -0.009426  0.113182)
 38:   1719.45   0.000194    0.98  0.000035  (-0.003933 -0.001075 -0.004307)
 39:   3014.72   0.013274   67.08  0.001374  (-0.031123 -0.009911 -0.017527)
 40:   3088.25   0.004563   23.06  0.000461  ( 0.007474 -0.020050 -0.001789)
 41:   3114.24   0.004169   21.07  0.000418  (-0.012095 -0.005796  0.015423)
 42:   3149.62   0.010334   52.22  0.001024  ( 0.021976  0.009837 -0.021075)
 43:   3151.53   0.003195   16.15  0.000316  (-0.006452 -0.000910 -0.016551)
 44:   3175.80   0.008013   40.49  0.000787  ( 0.026360  0.009443  0.001827)

--------------------------
THERMOCHEMISTRY AT 298.15K
--------------------------

Temperature         ...   298.15 K
Pressure            ...     1.00 atm
Total Mass          ...   122.12 AMU
Quasi RRHO          ...     True
Cut-Off Frequency   ...     1.00 cm^-1

Throughout the following assumptions are being made:
  (1) The electronic state is orbitally nondegenerate
      but the spin degeneracy is treated
  (2) There are no thermally accessible electronically excited states
  (3) Hindered rotations indicated by low frequency modes are not
      treated as such but are treated as vibrations and this may
      cause some error
  (4) All equations used are the standard statistical mechanics
      equations for an ideal gas
  (5) All vibrations are strictly harmonic

freq.     125.19  E(vib)   ...       0.43
freq.     130.63  E(vib)   ...       0.43
freq.     204.90  E(vib)   ...       0.35
freq.     286.78  E(vib)   ...       0.27
freq.     341.80  E(vib)   ...       0.23
freq.     389.63  E(vib)   ...       0.20
freq.     431.05  E(vib)   ...       0.18
freq.     456.44  E(vib)   ...       0.16
freq.     506.28  E(vib)   ...       0.14
freq.     600.97  E(vib)   ...       0.10
freq.     604.23  E(vib)   ...       0.10
freq.     729.40  E(vib)   ...       0.06
freq.     773.69  E(vib)   ...       0.05
freq.     806.44  E(vib)   ...       0.05
freq.     830.10  E(vib)   ...       0.04
freq.     901.65  E(vib)   ...       0.03
freq.     931.29  E(vib)   ...       0.03
freq.     968.70  E(vib)   ...       0.03
freq.    1008.29  E(vib)   ...       0.02
freq.    1056.03  E(vib)   ...       0.02
freq.    1092.82  E(vib)   ...       0.02
freq.    1167.77  E(vib)   ...       0.01
freq.    1227.36  E(vib)   ...       0.01
freq.    1262.53  E(vib)   ...       0.01
freq.    1360.21  E(vib)   ...       0.01
freq.    1396.64  E(vib)   ...       0.00
freq.    1450.44  E(vib)   ...       0.00
freq.    1456.96  E(vib)   ...       0.00
freq.    1483.62  E(vib)   ...       0.00
freq.    1557.26  E(vib)   ...       0.00
freq.    1597.83  E(vib)   ...       0.00
freq.    1621.81  E(vib)   ...       0.00
freq.    1719.45  E(vib)   ...       0.00
freq.    3014.72  E(vib)   ...       0.00
freq.    3088.25  E(vib)   ...       0.00
freq.    3114.24  E(vib)   ...       0.00
freq.    3149.62  E(vib)   ...       0.00
freq.    3151.53  E(vib)   ...       0.00
freq.    3175.80  E(vib)   ...       0.00

------------
INNER ENERGY
------------

The inner energy is: U= E(el) + E(ZPE) + E(vib) + E(rot) + E(trans)
    E(el)   - is the total energy from the electronic structure calculation
              = E(kin-el) + E(nuc-el) + E(el-el) + E(nuc-nuc)
    E(ZPE)  - the the zero temperature vibrational energy from the frequency calculation
    E(vib)  - the the finite temperature correction to E(ZPE) due to population
              of excited vibrational states
    E(rot)  - is the rotational thermal energy
    E(trans)- is the translational thermal energy

Summary of contributions to the inner energy U:
Electronic energy                ...   -420.05195866 Eh
Zero point energy                ...      0.11202288 Eh      70.30 kcal/mol
Thermal vibrational correction   ...      0.00478203 Eh       3.00 kcal/mol
Thermal rotational correction    ...      0.00141627 Eh       0.89 kcal/mol
Thermal translational correction ...      0.00141627 Eh       0.89 kcal/mol
-----------------------------------------------------------------------
Total thermal energy                   -419.93232120 Eh

Summary of corrections to the electronic energy:
(perhaps to be used in another calculation)
Total thermal correction                  0.00761458 Eh       4.78 kcal/mol
Non-thermal (ZPE) correction              0.11202288 Eh      70.30 kcal/mol
-----------------------------------------------------------------------
Total correction                          0.11963746 Eh      75.07 kcal/mol

--------
ENTHALPY
--------

The enthalpy is H = U + kB*T
                kB is Boltzmann's constant
Total thermal energy              ...   -419.93232120 Eh
Thermal Enthalpy correction       ...      0.00094421 Eh       0.59 kcal/mol
-----------------------------------------------------------------------
Total Enthalpy                    ...   -419.93137699 Eh

Note: Only C1 symmetry has been detected, increase convergence thresholds
      if your molecule has a higher symmetry. Symmetry factor of 1.0 is
      used for the rotational entropy correction.

Note: Rotational entropy computed according to Herzberg
Infrared and Raman Spectra, Chapter V,1, Van Nostrand Reinhold, 1945
Point Group:  C1, Symmetry Number:   1
Rotational constants in cm-1:     0.102982     0.046318     0.032139

Vibrational entropy computed according to the QRRHO of S. Grimme
Chem.Eur.J. 2012 18 9955 using a reference frequency of 100.0 cm-1

-------
ENTROPY
-------

The entropy contributions are T*S = T*(S(el)+S(vib)+S(rot)+S(trans))
     S(el)   - electronic entropy
     S(vib)  - vibrational entropy
     S(rot)  - rotational entropy
     S(trans)- translational entropy
The entropies will be listed as multiplied by the temperature to get
units of energy

Electronic entropy                ...      0.00065446 Eh      0.41 kcal/mol
Vibrational entropy               ...      0.00780984 Eh      4.90 kcal/mol
Rotational entropy                ...      0.01365724 Eh      8.57 kcal/mol
Translational entropy             ...      0.01915430 Eh     12.02 kcal/mol
-----------------------------------------------------------------------
Final entropy term                ...      0.04127583 Eh     25.90 kcal/mol

In case the symmetry of your molecule has not been determined correctly
or in case you have a reason to use a different symmetry number we print
out the resulting rotational entropy values for sn=1,12:

 non-linear molecules -----------------------------------
|  sn= 1 | S(rot)=       0.01365724 Eh      8.57 kcal/mol|
|  sn= 2 | S(rot)=       0.01300278 Eh      8.16 kcal/mol|
|  sn= 3 | S(rot)=       0.01261995 Eh      7.92 kcal/mol|
|  sn= 4 | S(rot)=       0.01234832 Eh      7.75 kcal/mol|
|  sn= 5 | S(rot)=       0.01213763 Eh      7.62 kcal/mol|
|  sn= 6 | S(rot)=       0.01196549 Eh      7.51 kcal/mol|
|  sn= 7 | S(rot)=       0.01181994 Eh      7.42 kcal/mol|
|  sn= 8 | S(rot)=       0.01169387 Eh      7.34 kcal/mol|
|  sn= 9 | S(rot)=       0.01158266 Eh      7.27 kcal/mol|
|  sn=10 | S(rot)=       0.01148318 Eh      7.21 kcal/mol|
|  sn=11 | S(rot)=       0.01139319 Eh      7.15 kcal/mol|
|  sn=12 | S(rot)=       0.01131103 Eh      7.10 kcal/mol|
 linear molecules ---------------------------------------
|  Dinfh | S(rot)=       0.00857161 Eh      5.38 kcal/mol|
|  Cinfv | S(rot)=       0.00922607 Eh      5.79 kcal/mol|
 --------------------------------------------------------

-------------------
GIBBS FREE ENERGY

                             ****ORCA TERMINATED NORMALLY****
TOTAL RUN TIME: 0 days 0 hours 32 minutes 6 seconds 507 msec
