                         Program Version 6.0.0  -   RELEASE  -
|  1> !TPSSh aug-cc-pVTZ d3 TightSCF SlowConv RIJCOSX defgrid2
|  2>
|  3> %pal
|  4> nprocs 4
|  5> end
|  6>
|  7> %scf
|  8> MaxIter 1500
|  9> end
| 10>
| 11> %maxcore 3000
| 12>
| 13> !CPCM
| 14> %cpcm smd true
| 15> SMDsolvent "MeCN"
| 16> surfacetype gepol_ses
| 17> rsolv 2.19
| 18> end
| 19>
| 20> * xyz -1 2
| 21> C          -1.22535307927293     -0.03882807002799     -0.00002255469277
| 22> C          -1.22206264378164      1.41582015720061     -0.00002423880206
| 23> C           0.00004637420421      2.08121905033007     -0.00000415463824
| 24> C           1.22212161683371      1.41575862792076      0.00002170232485
| 25> C           1.22534433396412     -0.03888819251674      0.00002507087618
| 26> C          -0.00002135567409     -0.71608207495025      0.00000157424078
| 27> H          -0.00004774645346     -1.81053735349218      0.00000261550832
| 28> C           2.43402384370652     -0.77080587803239      0.00007579493229
| 29> N           3.44413671726320     -1.36247120639636      0.00011250089172
| 30> H           2.16848850432676      1.96074544120089      0.00003301965359
| 31> H           0.00007494156619      3.17901522614598     -0.00000842096167
| 32> H          -2.16840192148197      1.96085605610510     -0.00003754989011
| 33> C          -2.43406244869294     -0.77069683887805     -0.00005052688718
| 34> N          -3.44419623650770     -1.36232524460946     -0.00007393255569
| 35> *
| 36>
| 37>                          ****END OF INPUT****

CARTESIAN COORDINATES (ANGSTROEM)
---------------------------------
  C     -1.225353   -0.038828   -0.000023
  C     -1.222063    1.415820   -0.000024
  C      0.000046    2.081219   -0.000004
  C      1.222122    1.415759    0.000022
  C      1.225344   -0.038888    0.000025
  C     -0.000021   -0.716082    0.000002
  H     -0.000048   -1.810537    0.000003
  C      2.434024   -0.770806    0.000076
  N      3.444137   -1.362471    0.000113
  H      2.168489    1.960745    0.000033
  H      0.000075    3.179015   -0.000008
  H     -2.168402    1.960856   -0.000038
  C     -2.434062   -0.770697   -0.000051
  N     -3.444196   -1.362325   -0.000074

 Total Charge           Charge          ....   -1
 Multiplicity           Mult            ....    2
 Number of Electrons    NEL             ....   67
 Basis Dimension        Dim             ....  552

ORBITAL ENERGIES
----------------
                 SPIN UP ORBITALS
  NO   OCC          E(Eh)            E(eV)
   0   1.0000     -14.230640      -387.2354
   1   1.0000     -14.230638      -387.2354
   2   1.0000     -10.139128      -275.8997
   3   1.0000     -10.139124      -275.8996
   4   1.0000     -10.129676      -275.6425
   5   1.0000     -10.128009      -275.5971
   6   1.0000     -10.127947      -275.5955
   7   1.0000     -10.107124      -275.0288
   8   1.0000     -10.100713      -274.8544
   9   1.0000     -10.100697      -274.8539
  10   1.0000      -0.871951       -23.7270
  11   1.0000      -0.868651       -23.6372
  12   1.0000      -0.824601       -22.4385
  13   1.0000      -0.740215       -20.1423
  14   1.0000      -0.730288       -19.8721
  15   1.0000      -0.616940       -16.7878
  16   1.0000      -0.603611       -16.4251
  17   1.0000      -0.538502       -14.6534
  18   1.0000      -0.462654       -12.5895
  19   1.0000      -0.451712       -12.2917
  20   1.0000      -0.427556       -11.6344
  21   1.0000      -0.400970       -10.9110
  22   1.0000      -0.380730       -10.3602
  23   1.0000      -0.353322        -9.6144
  24   1.0000      -0.350810        -9.5460
  25   1.0000      -0.348085        -9.4719
  26   1.0000      -0.335190        -9.1210
  27   1.0000      -0.334973        -9.1151
  28   1.0000      -0.310959        -8.4616
  29   1.0000      -0.305093        -8.3020
  30   1.0000      -0.300391        -8.1740
  31   1.0000      -0.247336        -6.7304
  32   1.0000      -0.239578        -6.5192
  33   1.0000      -0.096221        -2.6183
  34   0.0000      -0.042964        -1.1691
  35   0.0000      -0.003949        -0.1075
  36   0.0000       0.011943         0.3250
  37   0.0000       0.012299         0.3347
  38   0.0000       0.016100         0.4381

                 SPIN DOWN ORBITALS
  NO   OCC          E(Eh)            E(eV)
   0   1.0000     -14.228639      -387.1809
   1   1.0000     -14.228637      -387.1809
   2   1.0000     -10.138966      -275.8953
   3   1.0000     -10.138963      -275.8952
   4   1.0000     -10.130369      -275.6614
   5   1.0000     -10.126338      -275.5517
   6   1.0000     -10.126317      -275.5511
   7   1.0000     -10.109198      -275.0853
   8   1.0000     -10.094704      -274.6909
   9   1.0000     -10.094702      -274.6908
  10   1.0000      -0.868963       -23.6457
  11   1.0000      -0.865838       -23.5606
  12   1.0000      -0.820264       -22.3205
  13   1.0000      -0.732861       -19.9421
  14   1.0000      -0.726462       -19.7680
  15   1.0000      -0.605004       -16.4630
  16   1.0000      -0.601821       -16.3764
  17   1.0000      -0.537510       -14.6264
  18   1.0000      -0.458355       -12.4725
  19   1.0000      -0.449702       -12.2370
  20   1.0000      -0.425105       -11.5677
  21   1.0000      -0.400438       -10.8965
  22   1.0000      -0.368922       -10.0389
  23   1.0000      -0.350666        -9.5421
  24   1.0000      -0.348216        -9.4754
  25   1.0000      -0.337727        -9.1900
  26   1.0000      -0.333415        -9.0727
  27   1.0000      -0.333021        -9.0620
  28   1.0000      -0.303771        -8.2660
  29   1.0000      -0.299162        -8.1406
  30   1.0000      -0.298675        -8.1274
  31   1.0000      -0.238250        -6.4831
  32   1.0000      -0.214086        -5.8256
  33   0.0000      -0.043462        -1.1827
  34   0.0000      -0.038089        -1.0365
  35   0.0000      -0.001999        -0.0544
  36   0.0000       0.013304         0.3620
  37   0.0000       0.014569         0.3964

MULLIKEN ATOMIC CHARGES AND SPIN POPULATIONS
--------------------------------------------
   0 C :    1.005024    0.067694
   1 C :   -0.714283    0.449922
   2 C :   -0.356279   -0.136940
   3 C :   -0.714680    0.449915
   4 C :    1.005540    0.067698
   5 C :   -0.841958   -0.029604
   6 H :   -0.225180    0.003537
   7 C :    0.803814   -0.004296
   8 N :   -1.083102    0.092867
   9 H :   -0.023484   -0.014522
  10 H :    0.447081   -0.020339
  11 H :   -0.023425   -0.014506
  12 C :    0.803683   -0.004291
  13 N :   -1.082751    0.092866
Sum of atomic charges         :   -1.0000000

LOEWDIN ATOMIC CHARGES AND SPIN POPULATIONS
-------------------------------------------
   0 C :   -0.255664    0.101964
   1 C :    0.153766    0.198285
   2 C :    0.123723    0.057491
   3 C :    0.153761    0.198284
   4 C :   -0.255665    0.101965
   5 C :    0.140903    0.015113
   6 H :   -0.167042   -0.000691
   7 C :   -0.323317    0.047235
   8 N :    0.167887    0.074467
   9 H :   -0.200609    0.045261
  10 H :   -0.181708   -0.006334
  11 H :   -0.200608    0.045261
  12 C :   -0.323316    0.047234
  13 N :    0.167888    0.074465

  Mayer bond orders larger than 0.100000
B(  0-C ,  1-C ) :   0.2625 B(  0-C ,  4-C ) :   0.2118 B(  0-C ,  5-C ) :   0.6710
B(  0-C ,  6-H ) :  -0.1127 B(  0-C , 11-H ) :  -0.1384 B(  0-C , 12-C ) :   0.8640
B(  0-C , 13-N ) :   0.2989 B(  1-C ,  2-C ) :   1.3269 B(  1-C ,  5-C ) :  -0.1146
B(  1-C , 11-H ) :   1.2188 B(  1-C , 12-C ) :   0.3023 B(  2-C ,  3-C ) :   1.3278
B(  2-C , 10-H ) :   0.6247 B(  3-C ,  4-C ) :   0.2618 B(  3-C ,  5-C ) :  -0.1145
B(  3-C ,  7-C ) :   0.3028 B(  3-C ,  9-H ) :   1.2189 B(  4-C ,  5-C ) :   0.6715
B(  4-C ,  6-H ) :  -0.1128 B(  4-C ,  7-C ) :   0.8633 B(  4-C ,  8-N ) :   0.2987
B(  4-C ,  9-H ) :  -0.1383 B(  5-C ,  6-H ) :   1.4330 B(  5-C ,  8-N ) :   0.1064
B(  5-C ,  9-H ) :   0.1009 B(  5-C , 11-H ) :   0.1008 B(  5-C , 13-N ) :   0.1066
B(  7-C ,  8-N ) :   0.9324 B(  7-C , 12-C ) :   0.2273 B( 12-C , 13-N ) :   0.9332

Dispersion correction           -0.018903713
FINAL SINGLE POINT ENERGY      -417.023008968840

DIPOLE MOMENT
-------------

Method             : SCF
Type of density    : Electron Density
Multiplicity       :   2
Irrep              :   0
Energy             :  -417.0041052559408286 Eh
Relativity type    :
Basis              : AO
                                X                 Y                 Z
Electronic contribution:     -0.000105575      -3.171766779       0.000010316
Nuclear contribution   :      0.000114608       5.003113123      -0.000033044
                        -----------------------------------------
Total Dipole Moment    :      0.000009033       1.831346344      -0.000022728
                        -----------------------------------------
Magnitude (a.u.)       :      1.831346344
Magnitude (Debye)      :      4.654912474

Rotational constants in cm-1:             0.086960             0.030317             0.022480
Rotational constants in MHz :          2607.004234           908.865871           673.920567

                             ****ORCA TERMINATED NORMALLY****
TOTAL RUN TIME: 0 days 0 hours 5 minutes 36 seconds 451 msec
