                         Program Version 6.0.0  -   RELEASE  -
|  1> !PBE0 def2-SV(p) Opt Freq d3 TightSCF SlowConv RIJCOSX defgrid2
|  2>
|  3> %pal
|  4> nprocs 4
|  5> end
|  6>
|  7> %scf
|  8> MaxIter 1500
|  9> end
| 10>
| 11> %maxcore 3000
| 12>
| 13>
| 14>
| 15> * xyz 1 2
| 16> C    -0.6818489   -1.0761005    0.0000271
| 17> C    -1.3005951    0.2035749    0.0000280
| 18> C    -0.4817793    1.3732133    0.0000071
| 19> C     0.8780228    1.2691151   -0.0000184
| 20> C     1.4890728   -0.0091007   -0.0000201
| 21> C     0.6815662   -1.1746587    0.0000021
| 22> H     1.1621119   -2.1410060    0.0000005
| 23> C     2.8786461   -0.1275558   -0.0000489
| 24> C     4.0837931   -0.2409296   -0.0000287
| 25> H     5.1321403   -0.3361267   -0.0000633
| 26> H     1.5008110    2.1500978   -0.0000368
| 27> H    -0.9777284    2.3312786    0.0000087
| 28> O    -2.5889544    0.4179892    0.0000439
| 29> C    -3.5391993   -0.6276325    0.0000596
| 30> H    -4.5122083   -0.1392857    0.0000308
| 31> H    -3.4378534   -1.2516308   -0.8922174
| 32> H    -3.4378810   -1.2515719    0.8923813
| 33> H    -1.2823715   -1.9721879    0.0000465
| 34> *
| 35>
| 36>                          ****END OF INPUT****
 Total Charge           Charge          ....    1
 Multiplicity           Mult            ....    2
 Number of Electrons    NEL             ....   69
Dispersion correction           -0.015988385
FINAL SINGLE POINT ENERGY      -421.824683640431
Dispersion correction             ... done (  0.1 sec)
Dispersion correction           -0.015947397
FINAL SINGLE POINT ENERGY      -421.826917175988
Dispersion correction             ... done (  0.1 sec)
Dispersion correction           -0.015942219
FINAL SINGLE POINT ENERGY      -421.827006991091
Dispersion correction             ... done (  0.1 sec)
Dispersion correction           -0.015941664
FINAL SINGLE POINT ENERGY      -421.827030880164
Dispersion correction             ... done (  0.1 sec)
Dispersion correction           -0.015942373
FINAL SINGLE POINT ENERGY      -421.827033549405
Dispersion correction             ... done (  0.1 sec)
                    ***********************HURRAY********************

CARTESIAN COORDINATES (ANGSTROEM)
---------------------------------
  C     -0.698069   -1.081308    0.000005
  C     -1.299959    0.212210    0.000007
  C     -0.487135    1.390076   -0.000016
  C      0.874072    1.280976   -0.000030
  C      1.489615   -0.009884   -0.000035
  C      0.667131   -1.182429   -0.000017
  H      1.147871   -2.163748   -0.000018
  C      2.879234   -0.133038   -0.000039
  C      4.098174   -0.244923   -0.000002
  H      5.174209   -0.340318   -0.000003
  H      1.505685    2.172319   -0.000046
  H     -0.992203    2.359056   -0.000014
  O     -2.581019    0.420083    0.000037
  C     -3.537110   -0.640873    0.000078
  H     -4.518429   -0.150139    0.000112
  H     -3.421391   -1.253997   -0.908472
  H     -3.421317   -1.253982    0.908630
  H     -1.313615   -1.982598    0.000025

 Multiplicity           Mult            ....    2
 Number of Electrons    NEL             ....   69
 Basis Dimension        Dim             ....  156

ORBITAL ENERGIES
----------------
                 SPIN UP ORBITALS
  NO   OCC          E(Eh)            E(eV)
   0   1.0000     -19.464657      -529.6602
   1   1.0000     -10.519723      -286.2562
   2   1.0000     -10.471352      -284.9400
   3   1.0000     -10.446260      -284.2572
   4   1.0000     -10.441048      -284.1154
   5   1.0000     -10.435208      -283.9564
   6   1.0000     -10.433723      -283.9160
   7   1.0000     -10.432951      -283.8950
   8   1.0000     -10.429555      -283.8026
   9   1.0000     -10.425651      -283.6964
  10   1.0000      -1.315419       -35.7944
  11   1.0000      -1.080370       -29.3984
  12   1.0000      -0.999103       -27.1870
  13   1.0000      -0.969079       -26.3700
  14   1.0000      -0.944887       -25.7117
  15   1.0000      -0.904233       -24.6054
  16   1.0000      -0.828573       -22.5466
  17   1.0000      -0.807705       -21.9788
  18   1.0000      -0.752935       -20.4884
  19   1.0000      -0.734092       -19.9757
  20   1.0000      -0.703843       -19.1525
  21   1.0000      -0.695656       -18.9298
  22   1.0000      -0.687688       -18.7129
  23   1.0000      -0.643099       -17.4996
  24   1.0000      -0.631682       -17.1889
  25   1.0000      -0.617270       -16.7968
  26   1.0000      -0.600043       -16.3280
  27   1.0000      -0.597126       -16.2486
  28   1.0000      -0.564029       -15.3480
  29   1.0000      -0.558233       -15.1903
  30   1.0000      -0.526241       -14.3198
  31   1.0000      -0.497941       -13.5497
  32   1.0000      -0.473176       -12.8758
  33   1.0000      -0.467951       -12.7336
  34   1.0000      -0.425897       -11.5892
  35   0.0000      -0.225320        -6.1313
  36   0.0000      -0.192737        -5.2447
  37   0.0000      -0.129100        -3.5130
  38   0.0000      -0.095932        -2.6104
  39   0.0000      -0.078032        -2.1233

                 SPIN DOWN ORBITALS
  NO   OCC          E(Eh)            E(eV)
   0   1.0000     -19.459264      -529.5135
   1   1.0000     -10.517390      -286.1927
   2   1.0000     -10.466292      -284.8023
   3   1.0000     -10.446476      -284.2631
   4   1.0000     -10.441146      -284.1180
   5   1.0000     -10.433909      -283.9211
   6   1.0000     -10.432556      -283.8843
   7   1.0000     -10.429220      -283.7935
   8   1.0000     -10.427816      -283.7553
   9   1.0000     -10.426964      -283.7321
  10   1.0000      -1.305697       -35.5298
  11   1.0000      -1.073565       -29.2132
  12   1.0000      -0.991147       -26.9705
  13   1.0000      -0.967036       -26.3144
  14   1.0000      -0.938112       -25.5273
  15   1.0000      -0.894438       -24.3389
  16   1.0000      -0.824084       -22.4245
  17   1.0000      -0.803845       -21.8737
  18   1.0000      -0.750171       -20.4132
  19   1.0000      -0.730234       -19.8707
  20   1.0000      -0.701622       -19.0921
  21   1.0000      -0.691246       -18.8098
  22   1.0000      -0.668625       -18.1942
  23   1.0000      -0.640987       -17.4422
  24   1.0000      -0.630652       -17.1609
  25   1.0000      -0.615374       -16.7452
  26   1.0000      -0.598978       -16.2990
  27   1.0000      -0.581878       -15.8337
  28   1.0000      -0.562585       -15.3087
  29   1.0000      -0.538191       -14.6449
  30   1.0000      -0.523021       -14.2321
  31   1.0000      -0.469058       -12.7637
  32   1.0000      -0.468998       -12.7621
  33   1.0000      -0.461904       -12.5691
  34   0.0000      -0.339839        -9.2475
  35   0.0000      -0.197563        -5.3760
  36   0.0000      -0.180996        -4.9252
  37   0.0000      -0.126359        -3.4384
  38   0.0000      -0.077030        -2.0961

MULLIKEN ATOMIC CHARGES AND SPIN POPULATIONS
--------------------------------------------
   0 C :   -0.161847    0.078326
   1 C :    0.272394    0.154026
   2 C :   -0.080610    0.115632
   3 C :   -0.038161   -0.079285
   4 C :   -0.011299    0.350760
   5 C :   -0.026842   -0.017483
   6 H :    0.164481   -0.000521
   7 C :    0.342451   -0.152855
   8 C :   -0.313280    0.410762
   9 H :    0.197880   -0.020689
  10 H :    0.164726    0.002160
  11 H :    0.168919   -0.006619
  12 O :   -0.223231    0.161062
  13 C :   -0.199701   -0.013246
  14 H :    0.210276    0.000004
  15 H :    0.188120    0.011507
  16 H :    0.188119    0.011507
  17 H :    0.157605   -0.005047
Sum of atomic charges         :    1.0000000

LOEWDIN ATOMIC CHARGES AND SPIN POPULATIONS
-------------------------------------------
   0 C :   -0.128725    0.076010
   1 C :    0.115363    0.137186
   2 C :   -0.085811    0.101541
   3 C :   -0.051699   -0.035361
   4 C :    0.014597    0.255337
   5 C :   -0.033247    0.012542
   6 H :    0.171168   -0.000507
   7 C :    0.007932   -0.065941
   8 C :    0.001423    0.360604
   9 H :    0.197119   -0.012344
  10 H :    0.171576    0.000881
  11 H :    0.174821   -0.003562
  12 O :    0.016671    0.164931
  13 C :   -0.188916   -0.005361
  14 H :    0.159972   -0.000025
  15 H :    0.145872    0.008379
  16 H :    0.145872    0.008379
  17 H :    0.166011   -0.002690

  Mayer bond orders larger than 0.100000
B(  0-C ,  1-C ) :   1.1632 B(  0-C ,  5-C ) :   1.5360 B(  0-C , 17-H ) :   0.9492
B(  1-C ,  2-C ) :   1.1970 B(  1-C , 12-O ) :   1.3338 B(  2-C ,  3-C ) :   1.5306
B(  2-C , 11-H ) :   0.9507 B(  3-C ,  4-C ) :   1.1910 B(  3-C , 10-H ) :   0.9543
B(  4-C ,  5-C ) :   1.1941 B(  4-C ,  7-C ) :   1.1839 B(  5-C ,  6-H ) :   0.9503
B(  7-C ,  8-C ) :   2.2477 B(  8-C ,  9-H ) :   1.0011 B( 12-O , 13-C ) :   0.8619
B( 13-C , 14-H ) :   0.9412 B( 13-C , 15-H ) :   0.9329 B( 13-C , 16-H ) :   0.9329

Dispersion correction           -0.015942827
FINAL SINGLE POINT ENERGY      -421.827034053222

DIPOLE MOMENT
-------------

Method             : SCF
Type of density    : Electron Density
Multiplicity       :   2
Irrep              :   0
Energy             :  -421.8110912265943284 Eh
Relativity type    :
Basis              : AO
                                X                 Y                 Z
Electronic contribution:      5.649684456       1.861397597      -0.000163753
Nuclear contribution   :     -5.555943012      -2.398496713       0.000189114
                        -----------------------------------------
Total Dipole Moment    :      0.093741444      -0.537099116       0.000025361
                        -----------------------------------------
Magnitude (a.u.)       :      0.545218231
Magnitude (Debye)      :      1.385834609

VIBRATIONAL FREQUENCIES
-----------------------

Scaling factor for frequencies =  1.000000000  (already applied!)

     0:       0.00 cm**-1
     1:       0.00 cm**-1
     2:       0.00 cm**-1
     3:       0.00 cm**-1
     4:       0.00 cm**-1
     5:       0.00 cm**-1
     6:      70.13 cm**-1
     7:     133.63 cm**-1
     8:     152.08 cm**-1
     9:     177.44 cm**-1
    10:     246.86 cm**-1
    11:     254.27 cm**-1
    12:     386.36 cm**-1
    13:     389.97 cm**-1
    14:     411.70 cm**-1
    15:     500.44 cm**-1
    16:     536.63 cm**-1
    17:     555.85 cm**-1
    18:     623.48 cm**-1
    19:     711.86 cm**-1
    20:     714.04 cm**-1
    21:     726.95 cm**-1
    22:     763.71 cm**-1
    23:     806.38 cm**-1
    24:     835.04 cm**-1
    25:     880.55 cm**-1
    26:     998.32 cm**-1
    27:    1012.24 cm**-1
    28:    1019.25 cm**-1
    29:    1049.52 cm**-1
    30:    1138.46 cm**-1
    31:    1160.52 cm**-1
    32:    1191.38 cm**-1
    33:    1203.29 cm**-1
    34:    1282.65 cm**-1
    35:    1306.63 cm**-1
    36:    1377.91 cm**-1
    37:    1408.51 cm**-1
    38:    1460.90 cm**-1
    39:    1481.77 cm**-1
    40:    1483.25 cm**-1
    41:    1514.39 cm**-1
    42:    1555.44 cm**-1
    43:    1578.88 cm**-1
    44:    1706.49 cm**-1
    45:    2134.20 cm**-1
    46:    3064.89 cm**-1
    47:    3171.84 cm**-1
    48:    3221.95 cm**-1
    49:    3233.48 cm**-1
    50:    3234.56 cm**-1
    51:    3246.46 cm**-1
    52:    3249.48 cm**-1
    53:    3437.01 cm**-1

IR SPECTRUM
-----------

 Mode   freq       eps      Int      T**2         TX        TY        TZ
       cm**-1   L/(mol*cm) km/mol    a.u.
----------------------------------------------------------------------------
  6:     70.13   0.000333    1.68  0.001484  (-0.000000  0.000003  0.038517)
  7:    133.63   0.000532    2.69  0.001241  (-0.009154  0.034021 -0.000001)
  8:    152.08   0.000091    0.46  0.000187  (-0.000001  0.000003 -0.013676)
  9:    177.44   0.000176    0.89  0.000309  ( 0.000005  0.000007  0.017588)
 10:    246.86   0.001320    6.67  0.001668  ( 0.040280  0.006757 -0.000033)
 11:    254.27   0.002022   10.22  0.002481  (-0.000021 -0.000007 -0.049810)
 12:    386.36   0.000005    0.03  0.000004  ( 0.001822  0.001022 -0.000008)
 13:    389.97   0.000258    1.30  0.000207  ( 0.000004 -0.000002 -0.014374)
 14:    411.70   0.000656    3.32  0.000497  ( 0.000001 -0.000002  0.022303)
 15:    500.44   0.003083   15.58  0.001922  (-0.035972  0.025070  0.000000)
 16:    536.63   0.001135    5.74  0.000660  ( 0.019207  0.017065 -0.000001)
 17:    555.85   0.000952    4.81  0.000535  ( 0.000002 -0.000004 -0.023121)
 18:    623.48   0.000820    4.14  0.000411  (-0.012276 -0.016119  0.000001)
 19:    711.86   0.001819    9.19  0.000797  (-0.026506 -0.009740  0.000013)
 20:    714.04   0.006867   34.70  0.003001  (-0.007478  0.054268  0.000004)
 21:    726.95   0.004054   20.49  0.001740  ( 0.000013 -0.000001  0.041717)
 22:    763.71   0.000012    0.06  0.000005  (-0.000000 -0.000001  0.002203)
 23:    806.38   0.000093    0.47  0.000036  ( 0.000001  0.000000 -0.006011)
 24:    835.04   0.000989    5.00  0.000370  (-0.017823 -0.007206  0.000002)
 25:    880.55   0.013984   70.67  0.004956  (-0.000005  0.000004  0.070398)
 26:    998.32   0.003645   18.42  0.001139  ( 0.033421 -0.004720 -0.000001)
 27:   1012.24   0.000012    0.06  0.000004  ( 0.000002  0.000000  0.001922)
 28:   1019.25   0.000002    0.01  0.000001  ( 0.000011  0.000002  0.000715)
 29:   1049.52   0.013747   69.47  0.004088  (-0.053479 -0.035038  0.000000)
 30:   1138.46   0.002176   11.00  0.000596  (-0.005426 -0.023812 -0.000000)
 31:   1160.52   0.000082    0.41  0.000022  ( 0.000003 -0.000001 -0.004692)
 32:   1191.38   0.002161   10.92  0.000566  ( 0.022447  0.007890 -0.000001)
 33:   1203.29   0.001041    5.26  0.000270  (-0.016135  0.003084  0.000001)
 34:   1282.65   0.003130   15.82  0.000761  (-0.027375 -0.003470  0.000000)
 35:   1306.63   0.000089    0.45  0.000021  (-0.001588  0.004327  0.000000)
 36:   1377.91   0.001163    5.88  0.000263  (-0.005357  0.015321  0.000000)
 37:   1408.51   0.029631  149.74  0.006565  ( 0.080928  0.003955 -0.000002)
 38:   1460.90   0.015671   79.20  0.003348  (-0.054589  0.019172  0.000004)
 39:   1481.77   0.000253    1.28  0.000053  (-0.007012  0.002008 -0.000025)
 40:   1483.25   0.004629   23.39  0.000974  ( 0.000004 -0.000001  0.031208)
 41:   1514.39   0.001569    7.93  0.000323  (-0.013904 -0.011406  0.000001)
 42:   1555.44   0.004203   21.24  0.000843  ( 0.012291  0.026308 -0.000001)
 43:   1578.88   0.102553  518.26  0.020270  (-0.142226  0.006420  0.000003)
 44:   1706.49   0.010426   52.69  0.001907  ( 0.043511  0.003662 -0.000001)
 45:   2134.20   0.132206  668.11  0.019331  ( 0.138724 -0.009318 -0.000001)
 46:   3064.89   0.000812    4.10  0.000083  (-0.007252 -0.005485  0.000001)
 47:   3171.84   0.000112    0.57  0.000011  (-0.000001  0.000001  0.003317)
 48:   3221.95   0.000268    1.36  0.000026  (-0.002296 -0.004550  0.000000)
 49:   3233.48   0.000614    3.10  0.000059  (-0.006038  0.004772  0.000000)
 50:   3234.56   0.000088    0.45  0.000008  (-0.002914  0.000080  0.000000)
 51:   3246.46   0.002734   13.82  0.000263  (-0.001320 -0.016159  0.000000)
 52:   3249.48   0.001031    5.21  0.000099  (-0.000865  0.009912 -0.000000)
 53:   3437.01   0.016244   82.09  0.001475  ( 0.038277 -0.003111 -0.000000)

--------------------------
THERMOCHEMISTRY AT 298.15K
--------------------------

Temperature         ...   298.15 K
Pressure            ...     1.00 atm
Total Mass          ...   132.16 AMU
Quasi RRHO          ...     True
Cut-Off Frequency   ...     1.00 cm^-1

Throughout the following assumptions are being made:
  (1) The electronic state is orbitally nondegenerate
      but the spin degeneracy is treated
  (2) There are no thermally accessible electronically excited states
  (3) Hindered rotations indicated by low frequency modes are not
      treated as such but are treated as vibrations and this may
      cause some error
  (4) All equations used are the standard statistical mechanics
      equations for an ideal gas
  (5) All vibrations are strictly harmonic

freq.      70.13  E(vib)   ...       0.50
freq.     133.63  E(vib)   ...       0.42
freq.     152.08  E(vib)   ...       0.40
freq.     177.44  E(vib)   ...       0.37
freq.     246.86  E(vib)   ...       0.31
freq.     254.27  E(vib)   ...       0.30
freq.     386.36  E(vib)   ...       0.20
freq.     389.97  E(vib)   ...       0.20
freq.     411.70  E(vib)   ...       0.19
freq.     500.44  E(vib)   ...       0.14
freq.     536.63  E(vib)   ...       0.12
freq.     555.85  E(vib)   ...       0.12
freq.     623.48  E(vib)   ...       0.09
freq.     711.86  E(vib)   ...       0.07
freq.     714.04  E(vib)   ...       0.07
freq.     726.95  E(vib)   ...       0.06
freq.     763.71  E(vib)   ...       0.06
freq.     806.38  E(vib)   ...       0.05
freq.     835.04  E(vib)   ...       0.04
freq.     880.55  E(vib)   ...       0.04
freq.     998.32  E(vib)   ...       0.02
freq.    1012.24  E(vib)   ...       0.02
freq.    1019.25  E(vib)   ...       0.02
freq.    1049.52  E(vib)   ...       0.02
freq.    1138.46  E(vib)   ...       0.01
freq.    1160.52  E(vib)   ...       0.01
freq.    1191.38  E(vib)   ...       0.01
freq.    1203.29  E(vib)   ...       0.01
freq.    1282.65  E(vib)   ...       0.01
freq.    1306.63  E(vib)   ...       0.01
freq.    1377.91  E(vib)   ...       0.01
freq.    1408.51  E(vib)   ...       0.00
freq.    1460.90  E(vib)   ...       0.00
freq.    1481.77  E(vib)   ...       0.00
freq.    1483.25  E(vib)   ...       0.00
freq.    1514.39  E(vib)   ...       0.00
freq.    1555.44  E(vib)   ...       0.00
freq.    1578.88  E(vib)   ...       0.00
freq.    1706.49  E(vib)   ...       0.00
freq.    2134.20  E(vib)   ...       0.00
freq.    3064.89  E(vib)   ...       0.00
freq.    3171.84  E(vib)   ...       0.00
freq.    3221.95  E(vib)   ...       0.00
freq.    3233.48  E(vib)   ...       0.00
freq.    3234.56  E(vib)   ...       0.00
freq.    3246.46  E(vib)   ...       0.00
freq.    3249.48  E(vib)   ...       0.00
freq.    3437.01  E(vib)   ...       0.00

------------
INNER ENERGY
------------

The inner energy is: U= E(el) + E(ZPE) + E(vib) + E(rot) + E(trans)
    E(el)   - is the total energy from the electronic structure calculation
              = E(kin-el) + E(nuc-el) + E(el-el) + E(nuc-nuc)
    E(ZPE)  - the the zero temperature vibrational energy from the frequency calculation
    E(vib)  - the the finite temperature correction to E(ZPE) due to population
              of excited vibrational states
    E(rot)  - is the rotational thermal energy
    E(trans)- is the translational thermal energy

Summary of contributions to the inner energy U:
Electronic energy                ...   -421.82703405 Eh
Zero point energy                ...      0.14307126 Eh      89.78 kcal/mol
Thermal vibrational correction   ...      0.00626121 Eh       3.93 kcal/mol
Thermal rotational correction    ...      0.00141627 Eh       0.89 kcal/mol
Thermal translational correction ...      0.00141627 Eh       0.89 kcal/mol
-----------------------------------------------------------------------
Total thermal energy                   -421.67486904 Eh

Summary of corrections to the electronic energy:
(perhaps to be used in another calculation)
Total thermal correction                  0.00909375 Eh       5.71 kcal/mol
Non-thermal (ZPE) correction              0.14307126 Eh      89.78 kcal/mol
-----------------------------------------------------------------------
Total correction                          0.15216501 Eh      95.48 kcal/mol

--------
ENTHALPY
--------

The enthalpy is H = U + kB*T
                kB is Boltzmann's constant
Total thermal energy              ...   -421.67486904 Eh
Thermal Enthalpy correction       ...      0.00094421 Eh       0.59 kcal/mol
-----------------------------------------------------------------------
Total Enthalpy                    ...   -421.67392483 Eh

Note: Only C1 symmetry has been detected, increase convergence thresholds
      if your molecule has a higher symmetry. Symmetry factor of 1.0 is
      used for the rotational entropy correction.

Note: Rotational entropy computed according to Herzberg
Infrared and Raman Spectra, Chapter V,1, Van Nostrand Reinhold, 1945
Point Group:  C1, Symmetry Number:   1
Rotational constants in cm-1:     0.157571     0.023827     0.020782

Vibrational entropy computed according to the QRRHO of S. Grimme
Chem.Eur.J. 2012 18 9955 using a reference frequency of 100.0 cm-1

-------
ENTROPY
-------

The entropy contributions are T*S = T*(S(el)+S(vib)+S(rot)+S(trans))
     S(el)   - electronic entropy
     S(vib)  - vibrational entropy
     S(rot)  - rotational entropy
     S(trans)- translational entropy
The entropies will be listed as multiplied by the temperature to get
units of energy

Electronic entropy                ...      0.00065446 Eh      0.41 kcal/mol
Vibrational entropy               ...      0.01049112 Eh      6.58 kcal/mol
Rotational entropy                ...      0.01397608 Eh      8.77 kcal/mol
Translational entropy             ...      0.01926618 Eh     12.09 kcal/mol
-----------------------------------------------------------------------
Final entropy term                ...      0.04438784 Eh     27.85 kcal/mol

In case the symmetry of your molecule has not been determined correctly
or in case you have a reason to use a different symmetry number we print
out the resulting rotational entropy values for sn=1,12:

 non-linear molecules -----------------------------------
|  sn= 1 | S(rot)=       0.01397608 Eh      8.77 kcal/mol|
|  sn= 2 | S(rot)=       0.01332162 Eh      8.36 kcal/mol|
|  sn= 3 | S(rot)=       0.01293879 Eh      8.12 kcal/mol|
|  sn= 4 | S(rot)=       0.01266716 Eh      7.95 kcal/mol|
|  sn= 5 | S(rot)=       0.01245648 Eh      7.82 kcal/mol|
|  sn= 6 | S(rot)=       0.01228433 Eh      7.71 kcal/mol|
|  sn= 7 | S(rot)=       0.01213879 Eh      7.62 kcal/mol|
|  sn= 8 | S(rot)=       0.01201271 Eh      7.54 kcal/mol|
|  sn= 9 | S(rot)=       0.01190150 Eh      7.47 kcal/mol|
|  sn=10 | S(rot)=       0.01180202 Eh      7.41 kcal/mol|
|  sn=11 | S(rot)=       0.01171203 Eh      7.35 kcal/mol|

                             ****ORCA TERMINATED NORMALLY****
TOTAL RUN TIME: 0 days 0 hours 10 minutes 22 seconds 919 msec
