                         Program Version 6.0.0  -   RELEASE  -
|  1> !TPSSh aug-cc-pVTZ d3 TightSCF SlowConv RIJCOSX defgrid2
|  2>
|  3> %pal
|  4> nprocs 4
|  5> end
|  6>
|  7> %scf
|  8> MaxIter 1500
|  9> end
| 10>
| 11> %maxcore 3000
| 12>
| 13> !CPCM
| 14> %cpcm smd true
| 15> SMDsolvent "MeCN"
| 16> surfacetype gepol_ses
| 17> rsolv 2.19
| 18> end
| 19>
| 20> * xyz -1 2
| 21> C           0.68315502285048     -1.23058998559791     -0.00197785400563
| 22> C          -0.69097039389614     -1.22820808682412     -0.00110778792906
| 23> C          -1.39878915837568      0.00192561974512      0.00006123035750
| 24> C          -0.67088260295619      1.21697689217912      0.00034729291936
| 25> C           0.70599002665524      1.19710781410292     -0.00056169847882
| 26> C           1.43890972865005     -0.02356673016238     -0.00174160392592
| 27> C           2.88835051512998     -0.09555430971111     -0.00265662366589
| 28> O           3.51113560358604     -1.16132419888811     -0.00429988492646
| 29> C           3.67215429347512      1.21312233920081     -0.00319382492201
| 30> H           3.44490427270519      1.82862721041062      0.88658626511100
| 31> H           4.74564035342603      0.96713680695522     -0.00513239151038
| 32> H           3.44193148262032      1.82994436135706     -0.89128425723845
| 33> H           1.24130264942652      2.15210104681416     -0.00032125400509
| 34> H          -1.23634900308120      2.15002194871812      0.00128004669295
| 35> N          -2.79949677516438      0.01738261553575      0.00104508920787
| 36> O          -3.38660343043673      1.11542368371417      0.00320409549424
| 37> O          -3.41030224545591     -1.06695584054066      0.00182719273433
| 38> H          -1.27295707729704     -2.15125183977829     -0.00128101747157
| 39> H           1.24384223813830     -2.16976914723049     -0.00287851443797
| 40> *
| 41>
| 42>                          ****END OF INPUT****

CARTESIAN COORDINATES (ANGSTROEM)
---------------------------------
  C      0.683155   -1.230590   -0.001978
  C     -0.690970   -1.228208   -0.001108
  C     -1.398789    0.001926    0.000061
  C     -0.670883    1.216977    0.000347
  C      0.705990    1.197108   -0.000562
  C      1.438910   -0.023567   -0.001742
  C      2.888351   -0.095554   -0.002657
  O      3.511136   -1.161324   -0.004300
  C      3.672154    1.213122   -0.003194
  H      3.444904    1.828627    0.886586
  H      4.745640    0.967137   -0.005132
  H      3.441931    1.829944   -0.891284
  H      1.241303    2.152101   -0.000321
  H     -1.236349    2.150022    0.001280
  N     -2.799497    0.017383    0.001045
  O     -3.386603    1.115424    0.003204
  O     -3.410302   -1.066956    0.001827
  H     -1.272957   -2.151252   -0.001281
  H      1.243842   -2.169769   -0.002879

 Total Charge           Charge          ....   -1
 Multiplicity           Mult            ....    2
 Number of Electrons    NEL             ....   87
 Basis Dimension        Dim             ....  713

ORBITAL ENERGIES
----------------
                 SPIN UP ORBITALS
  NO   OCC          E(Eh)            E(eV)
   0   1.0000     -19.025388      -517.7071
   1   1.0000     -19.025266      -517.7038
   2   1.0000     -19.014365      -517.4072
   3   1.0000     -14.407974      -392.0609
   4   1.0000     -10.171102      -276.7698
   5   1.0000     -10.138773      -275.8900
   6   1.0000     -10.112684      -275.1801
   7   1.0000     -10.109128      -275.0834
   8   1.0000     -10.108700      -275.0717
   9   1.0000     -10.108354      -275.0623
  10   1.0000     -10.105150      -274.9751
  11   1.0000     -10.098154      -274.7847
  12   1.0000      -1.137636       -30.9566
  13   1.0000      -0.987157       -26.8619
  14   1.0000      -0.964605       -26.2482
  15   1.0000      -0.833943       -22.6928
  16   1.0000      -0.764551       -20.8045
  17   1.0000      -0.722928       -19.6719
  18   1.0000      -0.703652       -19.1473
  19   1.0000      -0.657422       -17.8894
  20   1.0000      -0.575698       -15.6655
  21   1.0000      -0.562512       -15.3067
  22   1.0000      -0.518312       -14.1040
  23   1.0000      -0.492938       -13.4135
  24   1.0000      -0.473111       -12.8740
  25   1.0000      -0.455015       -12.3816
  26   1.0000      -0.441103       -12.0030
  27   1.0000      -0.419958       -11.4276
  28   1.0000      -0.414729       -11.2854
  29   1.0000      -0.407409       -11.0862
  30   1.0000      -0.394345       -10.7307
  31   1.0000      -0.374377       -10.1873
  32   1.0000      -0.372184       -10.1276
  33   1.0000      -0.350596        -9.5402
  34   1.0000      -0.342603        -9.3227
  35   1.0000      -0.323692        -8.8081
  36   1.0000      -0.307015        -8.3543
  37   1.0000      -0.264717        -7.2033
  38   1.0000      -0.252800        -6.8790
  39   1.0000      -0.246354        -6.7036
  40   1.0000      -0.243097        -6.6150
  41   1.0000      -0.225787        -6.1440
  42   1.0000      -0.217043        -5.9060
  43   1.0000      -0.122656        -3.3376
  44   0.0000      -0.043303        -1.1783
  45   0.0000      -0.015371        -0.4183
  46   0.0000      -0.002964        -0.0807
  47   0.0000       0.010100         0.2748
  48   0.0000       0.014507         0.3948

                 SPIN DOWN ORBITALS
  NO   OCC          E(Eh)            E(eV)
   0   1.0000     -19.021117      -517.5909
   1   1.0000     -19.021067      -517.5896
   2   1.0000     -19.011492      -517.3290
   3   1.0000     -14.403433      -391.9373
   4   1.0000     -10.170202      -276.7453
   5   1.0000     -10.137305      -275.8501
   6   1.0000     -10.112869      -275.1852
   7   1.0000     -10.108725      -275.0724
   8   1.0000     -10.107840      -275.0483
   9   1.0000     -10.107514      -275.0394
  10   1.0000     -10.102611      -274.9060
  11   1.0000     -10.098247      -274.7873
  12   1.0000      -1.130050       -30.7502
  13   1.0000      -0.982459       -26.7341
  14   1.0000      -0.957491       -26.0547
  15   1.0000      -0.830650       -22.6031
  16   1.0000      -0.758339       -20.6354
  17   1.0000      -0.720491       -19.6056
  18   1.0000      -0.700439       -19.0599
  19   1.0000      -0.651820       -17.7369
  20   1.0000      -0.574951       -15.6452
  21   1.0000      -0.557952       -15.1827
  22   1.0000      -0.516412       -14.0523
  23   1.0000      -0.488033       -13.2801
  24   1.0000      -0.451058       -12.2739
  25   1.0000      -0.449184       -12.2229
  26   1.0000      -0.439028       -11.9466
  27   1.0000      -0.417444       -11.3592
  28   1.0000      -0.413487       -11.2515
  29   1.0000      -0.401560       -10.9270
  30   1.0000      -0.393757       -10.7147
  31   1.0000      -0.373132       -10.1534
  32   1.0000      -0.370979       -10.0949
  33   1.0000      -0.343431        -9.3452
  34   1.0000      -0.341561        -9.2943
  35   1.0000      -0.313131        -8.5207
  36   1.0000      -0.306429        -8.3383
  37   1.0000      -0.249560        -6.7909
  38   1.0000      -0.244216        -6.6455
  39   1.0000      -0.233068        -6.3421
  40   1.0000      -0.228335        -6.2133
  41   1.0000      -0.222772        -6.0619
  42   1.0000      -0.214809        -5.8452
  43   0.0000      -0.080274        -2.1844
  44   0.0000      -0.020208        -0.5499
  45   0.0000      -0.012270        -0.3339
  46   0.0000      -0.001592        -0.0433
  47   0.0000       0.011364         0.3092

MULLIKEN ATOMIC CHARGES AND SPIN POPULATIONS
--------------------------------------------
   0 C :   -0.663163    0.004523
   1 C :   -0.262372    0.089765
   2 C :    0.268813    0.073221
   3 C :   -0.499181    0.099142
   4 C :   -0.316314    0.002147
   5 C :    0.908064    0.146155
   6 C :    0.805505    0.052805
   7 O :   -1.090139    0.106465
   8 C :   -0.277204   -0.010083
   9 H :    0.186004    0.003839
  10 H :   -0.044972   -0.001711
  11 H :    0.185549    0.003857
  12 H :    0.050605   -0.003252
  13 H :    0.367220   -0.003331
  14 N :    0.800964    0.111862
  15 O :   -0.902836    0.165855
  16 O :   -0.901774    0.168290
  17 H :    0.421285   -0.003947
  18 H :   -0.036054   -0.005602
Sum of atomic charges         :   -1.0000000

LOEWDIN ATOMIC CHARGES AND SPIN POPULATIONS
-------------------------------------------
   0 C :    0.169883    0.030622
   1 C :    0.175547    0.048327
   2 C :   -0.300977    0.077785
   3 C :    0.177911    0.052840
   4 C :    0.181542    0.032672
   5 C :   -0.165131    0.092733
   6 C :   -0.603146    0.073194
   7 O :    0.430685    0.091156
   8 C :    0.539777    0.009901
   9 H :   -0.167235    0.002356
  10 H :   -0.189780   -0.000206
  11 H :   -0.167254    0.002354
  12 H :   -0.187210    0.001354
  13 H :   -0.212318    0.009564
  14 N :   -0.849542    0.167015
  15 O :    0.288029    0.148287
  16 O :    0.287980    0.150419
  17 H :   -0.212684    0.008518
  18 H :   -0.196077    0.001111

  Mayer bond orders larger than 0.100000
B(  0-C ,  1-C ) :   1.6130 B(  0-C ,  2-C ) :  -0.3335 B(  0-C ,  4-C ) :  -0.3343
B(  0-C ,  5-C ) :   0.4512 B(  0-C ,  6-C ) :   0.2104 B(  0-C , 16-O ) :  -0.1384
B(  0-C , 18-H ) :   1.1427 B(  1-C ,  2-C ) :   0.9920 B(  1-C ,  3-C ) :   0.1320
B(  1-C ,  4-C ) :  -0.1470 B(  1-C ,  5-C ) :   0.1366 B(  1-C ,  7-O ) :  -0.1076
B(  1-C , 14-N ) :  -0.1216 B(  1-C , 16-O ) :  -0.1192 B(  1-C , 17-H ) :   0.4359
B(  2-C ,  3-C ) :   0.8800 B(  2-C ,  4-C ) :  -0.2680 B(  2-C , 13-H ) :   0.1260
B(  2-C , 14-N ) :   1.3072 B(  2-C , 15-O ) :   0.5440 B(  2-C , 16-O ) :   0.5476
B(  2-C , 17-H ) :   0.1356 B(  3-C ,  4-C ) :   1.3674 B(  3-C ,  5-C ) :   0.1844
B(  3-C , 13-H ) :   0.4921 B(  3-C , 14-N ) :  -0.1980 B(  3-C , 15-O ) :  -0.1027
B(  4-C ,  5-C ) :   0.4949 B(  4-C ,  6-C ) :   0.1442 B(  4-C , 12-H ) :   1.1860
B(  4-C , 15-O ) :  -0.1327 B(  5-C ,  6-C ) :   0.4906 B(  5-C ,  7-O ) :   0.3967
B(  6-C ,  7-O ) :   0.2968 B(  6-C ,  8-C ) :   1.0618 B(  7-O , 18-H ) :   0.1867
B(  8-C ,  9-H ) :   0.9446 B(  8-C , 10-H ) :   1.0401 B(  8-C , 11-H ) :   0.9444
B( 14-N , 15-O ) :   0.5158 B( 14-N , 16-O ) :   0.5110 B( 15-O , 16-O ) :   0.1312

Dispersion correction           -0.024431436
FINAL SINGLE POINT ENERGY      -589.802850888434

DIPOLE MOMENT
-------------

Method             : SCF
Type of density    : Electron Density
Multiplicity       :   2
Irrep              :   0
Energy             :  -589.7784194527149566 Eh
Relativity type    :
Basis              : AO
                                X                 Y                 Z
Electronic contribution:     -8.235569851      -3.017757720       0.005548482
Nuclear contribution   :     10.845568770       4.317310741      -0.007525614
                        -----------------------------------------
Total Dipole Moment    :      2.609998920       1.299553021      -0.001977133
                        -----------------------------------------
Magnitude (a.u.)       :      2.915636521
Magnitude (Debye)      :      7.410959079

Rotational constants in cm-1:             0.095337             0.015839             0.013617
Rotational constants in MHz :          2858.135441           474.832890           408.233574

                             ****ORCA TERMINATED NORMALLY****
TOTAL RUN TIME: 0 days 0 hours 9 minutes 24 seconds 454 msec
