                         Program Version 6.0.0  -   RELEASE  -
|  1> !r2SCAN aug-cc-pVTZ d3 TightSCF SlowConv RIJCOSX defgrid2
|  2>
|  3> %pal
|  4> nprocs 10
|  5> end
|  6>
|  7> %scf
|  8> MaxIter 1500
|  9> end
| 10>
| 11> %maxcore 3500
| 12>
| 13> !CPCM
| 14> %cpcm smd true
| 15> SMDsolvent "WATER"
| 16> surfacetype gepol_ses
| 17> rsolv 1.40
| 18> end
| 19>
| 20> * xyz 0 2
| 21>   C          -0.11609874427787     -0.00549833146305     -1.09166051828012
| 22>   C          -0.06011683134759     -0.95278509536638     -0.14629559883637
| 23>   C          -0.12471069310473     -0.40669924924484      1.24362311758038
| 24>   N          -0.22754435037957      1.03434271135506      0.95079797263953
| 25>   C          -0.23150406587531      1.38042585937059     -0.48840792759055
| 26>   H           0.02559760749994     -2.01735042488152     -0.37607502307243
| 27>   O          -0.30719725434603      1.90352542466580      1.84763502630721
| 28>   C          -0.06026175824533     -0.38808249649150     -2.53546561747586
| 29>   O           0.04263596012876     -1.54903384399020     -2.88061155377649
| 30>   C          -1.54909261101230      2.09648655652139     -0.80036124124277
| 31>   H          -1.58247082249827      2.48576443460033     -1.83190594119848
| 32>   H          -2.40467570485958      1.41531605976659     -0.65984133217838
| 33>   H          -1.65709970518172      2.94563669192758     -0.10515427072988
| 34>   C           0.97137748294183      2.28793540378461     -0.76183532174647
| 35>   H           0.92403797538752      3.14845181915781     -0.07373708321239
| 36>   H           1.91466513722241      1.74585954892844     -0.58293263501816
| 37>   H           0.98323354337203      2.66940679234643     -1.79662980647134
| 38>   C           1.14603484773707     -0.67849930031598      2.05108178091850
| 39>   H           1.22944818447998     -1.74985812098869      2.29970024784929
| 40>   H           2.04188216597692     -0.37745827941083      1.48284498269252
| 41>   H           1.11122089200302     -0.09513329178683      2.98649209630369
| 42>   C          -1.36731121460930     -0.86517254295167      2.00958246948541
| 43>   H          -2.27834603550156     -0.69741684096779      1.41130352571173
| 44>   H          -1.30032457043791     -1.93784209757345      2.25766668368952
| 45>   H          -1.44837094192206     -0.28492100112544      2.94388101584222
| 46>   N          -0.12913367845321      0.62854904476097     -3.43820730517209
| 47>   H          -0.22721159511714      1.59778561337663     -3.17267086489660
| 48>   H          -0.09811273057999      0.38459799799591     -4.42137771112161
| 49> *
| 50>
| 51>                          ****END OF INPUT****

CARTESIAN COORDINATES (ANGSTROEM)
---------------------------------
  C     -0.116099   -0.005498   -1.091661
  C     -0.060117   -0.952785   -0.146296
  C     -0.124711   -0.406699    1.243623
  N     -0.227544    1.034343    0.950798
  C     -0.231504    1.380426   -0.488408
  H      0.025598   -2.017350   -0.376075
  O     -0.307197    1.903525    1.847635
  C     -0.060262   -0.388082   -2.535466
  O      0.042636   -1.549034   -2.880612
  C     -1.549093    2.096487   -0.800361
  H     -1.582471    2.485764   -1.831906
  H     -2.404676    1.415316   -0.659841
  H     -1.657100    2.945637   -0.105154
  C      0.971377    2.287935   -0.761835
  H      0.924038    3.148452   -0.073737
  H      1.914665    1.745860   -0.582933
  H      0.983234    2.669407   -1.796630
  C      1.146035   -0.678499    2.051082
  H      1.229448   -1.749858    2.299700
  H      2.041882   -0.377458    1.482845
  H      1.111221   -0.095133    2.986492
  C     -1.367311   -0.865173    2.009582
  H     -2.278346   -0.697417    1.411304
  H     -1.300325   -1.937842    2.257667
  H     -1.448371   -0.284921    2.943881
  N     -0.129134    0.628549   -3.438207
  H     -0.227212    1.597786   -3.172671
  H     -0.098113    0.384598   -4.421378

 Total Charge           Charge          ....    0
 Multiplicity           Mult            ....    2
 Number of Electrons    NEL             ....   99
 Basis Dimension        Dim             ....  943

ORBITAL ENERGIES
----------------
                 SPIN UP ORBITALS
  NO   OCC          E(Eh)            E(eV)
   0   1.0000     -18.970879      -516.2239
   1   1.0000     -18.934958      -515.2464
   2   1.0000     -14.266144      -388.2015
   3   1.0000     -14.188465      -386.0878
   4   1.0000     -10.152026      -276.2507
   5   1.0000     -10.100080      -274.8371
   6   1.0000     -10.095232      -274.7052
   7   1.0000     -10.058568      -273.7075
   8   1.0000     -10.055929      -273.6357
   9   1.0000     -10.032736      -273.0046
  10   1.0000     -10.032556      -272.9997
  11   1.0000     -10.030793      -272.9517
  12   1.0000     -10.030781      -272.9514
  13   1.0000      -1.088737       -29.6260
  14   1.0000      -1.020391       -27.7662
  15   1.0000      -0.880471       -23.9588
  16   1.0000      -0.870371       -23.6840
  17   1.0000      -0.786851       -21.4113
  18   1.0000      -0.730853       -19.8875
  19   1.0000      -0.694301       -18.8929
  20   1.0000      -0.665860       -18.1190
  21   1.0000      -0.657370       -17.8880
  22   1.0000      -0.620205       -16.8766
  23   1.0000      -0.577821       -15.7233
  24   1.0000      -0.542501       -14.7622
  25   1.0000      -0.529204       -14.4004
  26   1.0000      -0.501797       -13.6546
  27   1.0000      -0.463699       -12.6179
  28   1.0000      -0.462361       -12.5815
  29   1.0000      -0.450633       -12.2624
  30   1.0000      -0.426084       -11.5943
  31   1.0000      -0.415562       -11.3080
  32   1.0000      -0.407367       -11.0850
  33   1.0000      -0.403451       -10.9785
  34   1.0000      -0.397589       -10.8189
  35   1.0000      -0.384053       -10.4506
  36   1.0000      -0.377203       -10.2642
  37   1.0000      -0.371715       -10.1149
  38   1.0000      -0.357617        -9.7312
  39   1.0000      -0.348518        -9.4837
  40   1.0000      -0.346307        -9.4235
  41   1.0000      -0.324384        -8.8269
  42   1.0000      -0.323905        -8.8139
  43   1.0000      -0.320478        -8.7206
  44   1.0000      -0.313953        -8.5431
  45   1.0000      -0.258119        -7.0238
  46   1.0000      -0.251777        -6.8512
  47   1.0000      -0.248425        -6.7600
  48   1.0000      -0.241262        -6.5651
  49   1.0000      -0.170936        -4.6514
  50   0.0000      -0.073652        -2.0042
  51   0.0000       0.002929         0.0797
  52   0.0000       0.016674         0.4537
  53   0.0000       0.020476         0.5572
  54   0.0000       0.024190         0.6583

                 SPIN DOWN ORBITALS
  NO   OCC          E(Eh)            E(eV)
   0   1.0000     -18.956639      -515.8364
   1   1.0000     -18.934970      -515.2467
   2   1.0000     -14.251158      -387.7937
   3   1.0000     -14.188464      -386.0877
   4   1.0000     -10.152050      -276.2513
   5   1.0000     -10.100762      -274.8557
   6   1.0000     -10.095912      -274.7237
   7   1.0000     -10.058569      -273.7076
   8   1.0000     -10.055913      -273.6353
   9   1.0000     -10.032140      -272.9884
  10   1.0000     -10.031960      -272.9835
  11   1.0000     -10.030157      -272.9344
  12   1.0000     -10.030146      -272.9341
  13   1.0000      -1.067417       -29.0459
  14   1.0000      -1.020400       -27.7665
  15   1.0000      -0.878435       -23.9034
  16   1.0000      -0.863752       -23.5039
  17   1.0000      -0.786003       -21.3882
  18   1.0000      -0.725839       -19.7511
  19   1.0000      -0.683011       -18.5857
  20   1.0000      -0.663238       -18.0476
  21   1.0000      -0.655952       -17.8494
  22   1.0000      -0.618830       -16.8392
  23   1.0000      -0.575511       -15.6605
  24   1.0000      -0.541449       -14.7336
  25   1.0000      -0.521004       -14.1772
  26   1.0000      -0.501238       -13.6394
  27   1.0000      -0.460309       -12.5256
  28   1.0000      -0.445635       -12.1263
  29   1.0000      -0.435941       -11.8626
  30   1.0000      -0.423173       -11.5151
  31   1.0000      -0.415041       -11.2938
  32   1.0000      -0.402896       -10.9634
  33   1.0000      -0.401849       -10.9349
  34   1.0000      -0.397300       -10.8111
  35   1.0000      -0.382701       -10.4138
  36   1.0000      -0.368632       -10.0310
  37   1.0000      -0.367273        -9.9940
  38   1.0000      -0.357041        -9.7156
  39   1.0000      -0.345402        -9.3989
  40   1.0000      -0.335083        -9.1181
  41   1.0000      -0.323153        -8.7934
  42   1.0000      -0.319661        -8.6984
  43   1.0000      -0.313248        -8.5239
  44   1.0000      -0.306145        -8.3306
  45   1.0000      -0.258048        -7.0219
  46   1.0000      -0.249913        -6.8005
  47   1.0000      -0.246123        -6.6973
  48   1.0000      -0.232913        -6.3379
  49   0.0000      -0.089319        -2.4305
  50   0.0000      -0.072674        -1.9776
  51   0.0000       0.003601         0.0980
  52   0.0000       0.017851         0.4858
  53   0.0000       0.021508         0.5853

MULLIKEN ATOMIC CHARGES AND SPIN POPULATIONS
--------------------------------------------
   0 C :    1.617043    0.008268
   1 C :   -1.165481   -0.002532
   2 C :    1.357385   -0.093784
   3 N :    0.913618    0.554705
   4 C :    1.278822   -0.108027
   5 H :    0.342434   -0.001753
   6 O :   -1.120591    0.480177
   7 C :    0.435359    0.002402
   8 O :   -1.073084   -0.000156
   9 C :   -1.099557    0.029120
  10 H :    0.202550    0.006359
  11 H :    0.176296    0.005461
  12 H :    0.130527   -0.000763
  13 C :   -1.104690    0.028765
  14 H :    0.126990   -0.000792
  15 H :    0.175313    0.005586
  16 H :    0.204979    0.006147
  17 C :   -1.237194    0.031992
  18 H :    0.150098    0.004608
  19 H :    0.229297    0.004880
  20 H :    0.163142   -0.001379
  21 C :   -1.237416    0.032488
  22 H :    0.231006    0.004796
  23 H :    0.148759    0.004589
  24 H :    0.165682   -0.001326
  25 N :   -0.216941   -0.000310
  26 H :    0.115819    0.000457
  27 H :    0.089836    0.000022
Sum of atomic charges         :    0.0000000

LOEWDIN ATOMIC CHARGES AND SPIN POPULATIONS
-------------------------------------------
   0 C :   -0.080251    0.001500
   1 C :    0.258555    0.002031
   2 C :   -0.467914    0.041685
   3 N :   -0.165205    0.406487
   4 C :   -0.450100    0.040353
   5 H :   -0.135434   -0.000378
   6 O :    0.376871    0.425478
   7 C :   -0.697647   -0.000435
   8 O :    0.419483   -0.000351
   9 C :    0.605764    0.014379
  10 H :   -0.154201    0.003915
  11 H :   -0.138585    0.001830
  12 H :   -0.158260    0.000450
  13 C :    0.605133    0.014328
  14 H :   -0.157695    0.000456
  15 H :   -0.138953    0.001826
  16 H :   -0.154147    0.003895
  17 C :    0.603250    0.014802
  18 H :   -0.140347    0.003819
  19 H :   -0.144783    0.001821
  20 H :   -0.156281    0.000758
  21 C :    0.603400    0.014890
  22 H :   -0.144815    0.001830
  23 H :   -0.140245    0.003852
  24 H :   -0.156534    0.000765
  25 N :    0.886430    0.000053
  26 H :   -0.326237   -0.000049
  27 H :   -0.251253    0.000009

  Mayer bond orders larger than 0.100000
B(  0-C ,  1-C ) :  -0.3010 B(  0-C ,  2-C ) :   0.2886 B(  0-C ,  3-N ) :  -0.3296
B(  0-C ,  4-C ) :   0.3151 B(  0-C ,  5-H ) :  -0.1972 B(  0-C ,  7-C ) :  -0.7422
B(  0-C ,  8-O ) :   0.7384 B(  0-C , 25-N ) :  -0.2782 B(  1-C ,  2-C ) :   0.8193
B(  1-C ,  3-N ) :  -0.3075 B(  1-C ,  4-C ) :   0.1162 B(  1-C ,  5-H ) :   0.9010
B(  1-C ,  7-C ) :   0.7704 B(  1-C ,  8-O ) :  -0.1240 B(  2-C ,  3-N ) :   1.2673
B(  2-C ,  4-C ) :  -0.1824 B(  2-C ,  6-O ) :  -0.2335 B(  2-C ,  7-C ) :  -0.2786
B(  2-C , 17-C ) :   0.2292 B(  2-C , 21-C ) :   0.2273 B(  3-N ,  4-C ) :   1.4417
B(  3-N ,  6-O ) :   0.4656 B(  4-C ,  5-H ) :   0.1730 B(  4-C ,  7-C ) :   0.5492
B(  4-C ,  9-C ) :   0.3273 B(  4-C , 13-C ) :   0.3187 B(  4-C , 25-N ) :  -0.1449
B(  6-O ,  9-C ) :   0.1003 B(  6-O , 13-C ) :   0.1004 B(  7-C ,  8-O ) :   0.3057
B(  7-C , 25-N ) :   1.1285 B(  9-C , 10-H ) :   0.9383 B(  9-C , 11-H ) :   1.0465
B(  9-C , 12-H ) :   1.0770 B(  9-C , 13-C ) :   0.1792 B( 13-C , 14-H ) :   1.0803
B( 13-C , 15-H ) :   1.0483 B( 13-C , 16-H ) :   0.9385 B( 17-C , 18-H ) :   1.0819
B( 17-C , 19-H ) :   0.9787 B( 17-C , 20-H ) :   1.0764 B( 17-C , 21-C ) :   0.2934
B( 21-C , 22-H ) :   0.9779 B( 21-C , 23-H ) :   1.0852 B( 21-C , 24-H ) :   1.0729
B( 25-N , 26-H ) :   0.9908 B( 25-N , 27-H ) :   0.9763

Dispersion correction           -0.010458097
FINAL SINGLE POINT ENERGY      -611.807096996247

DIPOLE MOMENT
-------------

Method             : SCF
Type of density    : Electron Density
Multiplicity       :   2
Irrep              :   0
Energy             :  -611.7966388990848827 Eh
Relativity type    :
Basis              : AO
                                X                 Y                 Z
Electronic contribution:      0.312954611      -2.690578435      -5.516512487
Nuclear contribution   :     -0.388237367       3.445340699       4.719558355
                        -----------------------------------------
Total Dipole Moment    :     -0.075282756       0.754762264      -0.796954132
                        -----------------------------------------
Magnitude (a.u.)       :      1.100213369
Magnitude (Debye)      :      2.796520140

Rotational constants in cm-1:             0.040199             0.022321             0.017613
Rotational constants in MHz :          1205.148589           669.171544           528.030747

                             ****ORCA TERMINATED NORMALLY****
TOTAL RUN TIME: 0 days 0 hours 7 minutes 10 seconds 796 msec
