                         Program Version 6.0.0  -   RELEASE  -
|  1> !r2SCANh aug-cc-pVTZ d3 TightSCF SlowConv RIJCOSX defgrid2
|  2>
|  3> %pal
|  4> nprocs 15
|  5> end
|  6>
|  7> %scf
|  8> MaxIter 1500
|  9> end
| 10>
| 11> %maxcore 3500
| 12>
| 13> !CPCM
| 14> %cpcm smd true
| 15> SMDsolvent "WATER"
| 16> surfacetype gepol_ses
| 17> rsolv 1.40
| 18> end
| 19>
| 20> * xyz 1 1
| 21> O           1.67418114371668      3.37941862349945      1.15434517451953
| 22> N           2.62064316767579      2.68353532320648      1.21821077363263
| 23> C           3.73993026379150      2.91054121006730      0.20970750682041
| 24> C           4.36130392564807      1.55615394201201     -0.16493097978128
| 25> C           4.62693950470140      0.69901335740602      1.05364249756333
| 26> C           3.36304153274566      0.38280475677984      1.82347271406070
| 27> C           2.67247724345731      1.65441275633349      2.34006156392482
| 28> C           4.77144659115805      3.82229180911963      0.90254364472309
| 29> C           3.13466064770778      3.61114644043461     -0.99676243427434
| 30> C           3.47911508845757      2.30037383127262      3.48367565566839
| 31> C           1.24267102320542      1.38466686141498      2.78223585653897
| 32> H           5.30435815962353      1.74905887837014     -0.69848543170310
| 33> H           3.68229748767712      1.01484427915689     -0.84850427599189
| 34> H           3.60305334396738     -0.25238254910522      2.68961476485432
| 35> H           2.66820679637278     -0.17392576731557      1.16878669341899
| 36> H           4.29271611598733      4.70860976879227      1.34923722277333
| 37> H           5.37253037929227      3.29729158675115      1.65830335398642
| 38> H           5.45774493444870      4.16825914256566      0.11223951897270
| 39> H           2.78695679630107      4.62736503748115     -0.75666206631619
| 40> H           2.29625873974227      3.03524814826618     -1.42272318664526
| 41> H           3.92087891841351      3.68882501387840     -1.76468511803900
| 42> H           3.10731631344064      3.31044562450783      3.71967690908610
| 43> H           4.55901147845801      2.33249422618085      3.28233095765611
| 44> H           3.32267627795631      1.66477199454961      4.37074941627309
| 45> H           0.78000313618024      2.26411165418521      3.25536747289543
| 46> H           0.61113911289273      1.05517880381548      1.94035363615987
| 47> H           1.27425600304513      0.57114720607980      3.52446186259019
| 48> O           5.72044769993566      0.34198636029372      1.39209682163264
| 49> *
| 50>
| 51>                          ****END OF INPUT****

CARTESIAN COORDINATES (ANGSTROEM)
---------------------------------
  O      1.674181    3.379419    1.154345
  N      2.620643    2.683535    1.218211
  C      3.739930    2.910541    0.209708
  C      4.361304    1.556154   -0.164931
  C      4.626940    0.699013    1.053642
  C      3.363042    0.382805    1.823473
  C      2.672477    1.654413    2.340062
  C      4.771447    3.822292    0.902544
  C      3.134661    3.611146   -0.996762
  C      3.479115    2.300374    3.483676
  C      1.242671    1.384667    2.782236
  H      5.304358    1.749059   -0.698485
  H      3.682297    1.014844   -0.848504
  H      3.603053   -0.252383    2.689615
  H      2.668207   -0.173926    1.168787
  H      4.292716    4.708610    1.349237
  H      5.372530    3.297292    1.658303
  H      5.457745    4.168259    0.112240
  H      2.786957    4.627365   -0.756662
  H      2.296259    3.035248   -1.422723
  H      3.920879    3.688825   -1.764685
  H      3.107316    3.310446    3.719677
  H      4.559011    2.332494    3.282331
  H      3.322676    1.664772    4.370749
  H      0.780003    2.264112    3.255367
  H      0.611139    1.055179    1.940354
  H      1.274256    0.571147    3.524462
  O      5.720448    0.341986    1.392097

 Total Charge           Charge          ....    1
 Multiplicity           Mult            ....    1
 Number of Electrons    NEL             ....   92
 Basis Dimension        Dim             ....  920

ORBITAL ENERGIES
----------------

  NO   OCC          E(Eh)            E(eV)
   0   2.0000     -19.259409      -524.0752
   1   2.0000     -19.139974      -520.8252
   2   2.0000     -14.550862      -395.9491
   3   2.0000     -10.275589      -279.6130
   4   2.0000     -10.266008      -279.3523
   5   2.0000     -10.265990      -279.3518
   6   2.0000     -10.188482      -277.2427
   7   2.0000     -10.188476      -277.2425
   8   2.0000     -10.178307      -276.9658
   9   2.0000     -10.178241      -276.9640
  10   2.0000     -10.167039      -276.6592
  11   2.0000     -10.167004      -276.6582
  12   2.0000      -1.282269       -34.8923
  13   2.0000      -1.086822       -29.5739
  14   2.0000      -0.932140       -25.3648
  15   2.0000      -0.869325       -23.6555
  16   2.0000      -0.787423       -21.4269
  17   2.0000      -0.757449       -20.6112
  18   2.0000      -0.721019       -19.6199
  19   2.0000      -0.719034       -19.5659
  20   2.0000      -0.708827       -19.2882
  21   2.0000      -0.654893       -17.8205
  22   2.0000      -0.601554       -16.3691
  23   2.0000      -0.578074       -15.7302
  24   2.0000      -0.556940       -15.1551
  25   2.0000      -0.535490       -14.5714
  26   2.0000      -0.513490       -13.9728
  27   2.0000      -0.485394       -13.2082
  28   2.0000      -0.479468       -13.0470
  29   2.0000      -0.468149       -12.7390
  30   2.0000      -0.449600       -12.2342
  31   2.0000      -0.439601       -11.9622
  32   2.0000      -0.419199       -11.4070
  33   2.0000      -0.417202       -11.3526
  34   2.0000      -0.408664       -11.1203
  35   2.0000      -0.408383       -11.1127
  36   2.0000      -0.394171       -10.7259
  37   2.0000      -0.386265       -10.5108
  38   2.0000      -0.382525       -10.4090
  39   2.0000      -0.380837       -10.3631
  40   2.0000      -0.368845       -10.0368
  41   2.0000      -0.361896        -9.8477
  42   2.0000      -0.360612        -9.8128
  43   2.0000      -0.354983        -9.6596
  44   2.0000      -0.325004        -8.8438
  45   2.0000      -0.267620        -7.2823
  46   0.0000      -0.185350        -5.0436
  47   0.0000      -0.065102        -1.7715
  48   0.0000       0.009791         0.2664
  49   0.0000       0.022290         0.6065
  50   0.0000       0.023333         0.6349

MULLIKEN ATOMIC CHARGES
-----------------------
   0 O :   -0.906677
   1 N :    0.926364
   2 C :    2.056431
   3 C :   -0.574259
   4 C :    1.287484
   5 C :   -0.577844
   6 C :    2.034139
   7 C :   -1.031858
   8 C :   -1.351999
   9 C :   -1.026267
  10 C :   -1.355982
  11 H :    0.135180
  12 H :    0.229079
  13 H :    0.131039
  14 H :    0.231898
  15 H :    0.201606
  16 H :    0.234375
  17 H :    0.047055
  18 H :    0.170758
  19 H :    0.208468
  20 H :    0.144568
  21 H :    0.201703
  22 H :    0.232122
  23 H :    0.049303
  24 H :    0.169877
  25 H :    0.206785
  26 H :    0.146823
  27 O :   -1.220173
Sum of atomic charges:    1.0000000

LOEWDIN ATOMIC CHARGES
----------------------
   0 O :    0.657022
   1 N :    0.011128
   2 C :   -0.372517
   3 C :    0.331057
   4 C :   -0.502593
   5 C :    0.331098
   6 C :   -0.372821
   7 C :    0.638677
   8 C :    0.601635
   9 C :    0.638696
  10 C :    0.601711
  11 H :   -0.116154
  12 H :   -0.104977
  13 H :   -0.115936
  14 H :   -0.104941
  15 H :   -0.120738
  16 H :   -0.164672
  17 H :   -0.120427
  18 H :   -0.145403
  19 H :   -0.132930
  20 H :   -0.129051
  21 H :   -0.120888
  22 H :   -0.165038
  23 H :   -0.120185
  24 H :   -0.145127
  25 H :   -0.132813
  26 H :   -0.129333
  27 O :    0.505519

  Mayer bond orders larger than 0.100000
B(  0-O ,  1-N ) :   0.7018 B(  0-O ,  8-C ) :   0.1107 B(  0-O , 10-C ) :   0.1144
B(  1-N ,  2-C ) :   0.7780 B(  1-N ,  3-C ) :   0.2129 B(  1-N ,  5-C ) :   0.2112
B(  1-N ,  6-C ) :   0.7920 B(  1-N ,  7-C ) :   0.1086 B(  1-N ,  8-C ) :  -0.1707
B(  1-N ,  9-C ) :   0.1007 B(  1-N , 10-C ) :  -0.1818 B(  2-C ,  3-C ) :   0.3767
B(  2-C ,  4-C ) :   0.1236 B(  2-C ,  6-C ) :   0.1979 B(  2-C , 17-H ) :  -0.1249
B(  3-C ,  4-C ) :   0.8595 B(  3-C ,  5-C ) :   0.1156 B(  3-C ,  7-C ) :   0.1348
B(  3-C , 11-H ) :   0.9059 B(  3-C , 12-H ) :   0.9607 B(  3-C , 27-O ) :   0.2144
B(  4-C ,  5-C ) :   0.8549 B(  4-C ,  6-C ) :   0.1216 B(  4-C , 27-O ) :   0.1302
B(  5-C ,  6-C ) :   0.3681 B(  5-C ,  9-C ) :   0.1370 B(  5-C , 13-H ) :   0.9123
B(  5-C , 14-H ) :   0.9602 B(  5-C , 27-O ) :   0.2177 B(  6-C , 23-H ) :  -0.1252
B(  7-C ,  8-C ) :   0.1855 B(  7-C , 15-H ) :   0.9979 B(  7-C , 16-H ) :   0.9632
B(  7-C , 17-H ) :   1.1837 B(  8-C , 18-H ) :   1.0576 B(  8-C , 19-H ) :   1.0543
B(  8-C , 20-H ) :   1.0985 B(  9-C , 10-C ) :   0.1792 B(  9-C , 21-H ) :   0.9979
B(  9-C , 22-H ) :   0.9680 B(  9-C , 23-H ) :   1.1794 B( 10-C , 24-H ) :   1.0585
B( 10-C , 25-H ) :   1.0585 B( 10-C , 26-H ) :   1.0954

Dispersion correction           -0.010676260
FINAL SINGLE POINT ENERGY      -557.426800889041

DIPOLE MOMENT
-------------

Method             : SCF
Type of density    : Electron Density
Multiplicity       :   1
Irrep              :   0
Energy             :  -557.4161246293317618 Eh
Relativity type    :
Basis              : AO
                                X                 Y                 Z
Electronic contribution:      0.293309543      -2.660658368      -1.413335182
Nuclear contribution   :     -1.867094982       3.503684408       1.120844434
                        -----------------------------------------
Total Dipole Moment    :     -1.573785439       0.843026039      -0.292490748
                        -----------------------------------------
Magnitude (a.u.)       :      1.809155701
Magnitude (Debye)      :      4.598508342

Rotational constants in cm-1:             0.036291             0.035500             0.023692
Rotational constants in MHz :          1087.981132          1064.262103           710.263902

                             ****ORCA TERMINATED NORMALLY****
TOTAL RUN TIME: 0 days 0 hours 7 minutes 30 seconds 875 msec
