                         Program Version 6.0.0  -   RELEASE  -
|  1> !r2SCANh aug-cc-pVTZ d3 TightSCF SlowConv RIJCOSX defgrid2
|  2>
|  3> %pal
|  4> nprocs 4
|  5> end
|  6>
|  7> %scf
|  8> MaxIter 1500
|  9> end
| 10>
| 11> %maxcore 3000
| 12>
| 13> !CPCM
| 14> %cpcm smd true
| 15> SMDsolvent "MeCN"
| 16> surfacetype gepol_ses
| 17> rsolv 2.19
| 18> end
| 19>
| 20> * xyz 0 1
| 21> C           0.40845561541467      1.09654851965361      0.00002153601786
| 22> C           1.22157048240356     -0.02055925058461     -0.00001124146046
| 23> C           0.31627509804411     -1.10552037144195      0.00002465926407
| 24> N          -0.94362721428629     -0.69407804717258     -0.00003818172667
| 25> N          -0.86222699991342      0.63149016796153     -0.00002192547512
| 26> H          -1.71469887339655      1.17729476555237     -0.00003850624553
| 27> H           0.53586137989645     -2.17396458772866      0.00003582780905
| 28> H           2.30976241169899     -0.04700402205514     -0.00001651155181
| 29> H           0.63234930013847      2.16236532581542      0.00003934336862
| 30> *
| 31>
| 32>                          ****END OF INPUT****

CARTESIAN COORDINATES (ANGSTROEM)
---------------------------------
  C      0.408456    1.096549    0.000022
  C      1.221570   -0.020559   -0.000011
  C      0.316275   -1.105520    0.000025
  N     -0.943627   -0.694078   -0.000038
  N     -0.862227    0.631490   -0.000022
  H     -1.714699    1.177295   -0.000039
  H      0.535861   -2.173965    0.000036
  H      2.309762   -0.047004   -0.000017
  H      0.632349    2.162365    0.000039

 Total Charge           Charge          ....    0
 Multiplicity           Mult            ....    1
 Number of Electrons    NEL             ....   36
 Basis Dimension        Dim             ....  322

ORBITAL ENERGIES
----------------

  NO   OCC          E(Eh)            E(eV)
   0   2.0000     -14.377009      -391.2183
   1   2.0000     -14.324484      -389.7890
   2   2.0000     -10.190316      -277.2926
   3   2.0000     -10.173555      -276.8365
   4   2.0000     -10.151050      -276.2241
   5   2.0000      -1.057897       -28.7868
   6   2.0000      -0.816440       -22.2165
   7   2.0000      -0.779182       -21.2026
   8   2.0000      -0.599115       -16.3027
   9   2.0000      -0.590482       -16.0678
  10   2.0000      -0.533193       -14.5089
  11   2.0000      -0.439844       -11.9688
  12   2.0000      -0.430908       -11.7256
  13   2.0000      -0.413580       -11.2541
  14   2.0000      -0.383838       -10.4448
  15   2.0000      -0.292757        -7.9663
  16   2.0000      -0.257661        -7.0113
  17   2.0000      -0.250544        -6.8176
  18   0.0000      -0.001645        -0.0448
  19   0.0000       0.014320         0.3897
  20   0.0000       0.031127         0.8470
  21   0.0000       0.033754         0.9185
  22   0.0000       0.042227         1.1491

MULLIKEN ATOMIC CHARGES
-----------------------
   0 C :   -0.773781
   1 C :    0.056630
   2 C :   -0.475935
   3 N :   -0.690609
   4 N :    0.342330
   5 H :    0.132411
   6 H :    0.545774
   7 H :    0.352655
   8 H :    0.510525
Sum of atomic charges:   -0.0000000

LOEWDIN ATOMIC CHARGES
----------------------
   0 C :    0.107394
   1 C :    0.167942
   2 C :   -0.056490
   3 N :    0.249765
   4 N :    0.304778
   5 H :   -0.232956
   6 H :   -0.196857
   7 H :   -0.188417
   8 H :   -0.155158

  Mayer bond orders larger than 0.100000
B(  0-C ,  1-C ) :   0.9007 B(  0-C ,  2-C ) :   0.1735 B(  0-C ,  4-N ) :   1.2279
B(  0-C ,  8-H ) :   0.6500 B(  1-C ,  2-C ) :   0.9161 B(  1-C ,  4-N ) :  -0.1313
B(  1-C ,  7-H ) :   0.9044 B(  2-C ,  3-N ) :   1.3874 B(  2-C ,  6-H ) :   0.6124
B(  3-N ,  4-N ) :   0.3407 B(  4-N ,  5-H ) :   1.0681

Dispersion correction           -0.001794687
FINAL SINGLE POINT ENERGY      -226.161678661159

DIPOLE MOMENT
-------------

Method             : SCF
Type of density    : Electron Density
Multiplicity       :   1
Irrep              :   0
Energy             :  -226.1598839746484941 Eh
Relativity type    :
Basis              : AO
                                X                 Y                 Z
Electronic contribution:     -1.361758549       0.178143845      -0.001216296
Nuclear contribution   :      1.652068746       1.054919735       0.000040788
                        -----------------------------------------
Total Dipole Moment    :      0.290310197       1.233063581      -0.001175507
                        -----------------------------------------
Magnitude (a.u.)       :      1.266778270
Magnitude (Debye)      :      3.219894474

Rotational constants in cm-1:             0.323621             0.316316             0.159963
Rotational constants in MHz :          9701.899385          9482.912680          4795.578108

                             ****ORCA TERMINATED NORMALLY****
TOTAL RUN TIME: 0 days 0 hours 1 minutes 22 seconds 634 msec
