                         Program Version 6.0.0  -   RELEASE  -
|  1> !PBE0 def2-SV(p) Opt Freq d3 TightSCF SlowConv RIJCOSX defgrid2
|  2>
|  3> %pal
|  4> nprocs 4
|  5> end
|  6>
|  7> %scf
|  8> MaxIter 1500
|  9> end
| 10>
| 11> %maxcore 3000
| 12>
| 13>
| 14>
| 15> * xyz 1 2
| 16> C     0.8810293   -1.4186872    0.0000041
| 17> C     2.1136641   -0.7223261   -0.0000062
| 18> C     2.1751592    0.6673959   -0.0000102
| 19> C     1.0238385    1.4386152   -0.0000040
| 20> C    -0.2245209    0.7700422    0.0000063
| 21> C    -0.2573440   -0.6537205    0.0000103
| 22> O    -1.5602932   -1.0698938    0.0000199
| 23> C    -2.3160862   -0.0042557    0.0000220
| 24> C    -1.5652741    1.1834004    0.0000141
| 25> H    -1.9528592    2.1836398    0.0000140
| 26> H    -3.3845305   -0.1411806    0.0000310
| 27> H     1.0631537    2.5169155   -0.0000072
| 28> H     3.1391888    1.1518688   -0.0000182
| 29> H     3.0282478   -1.2959000   -0.0000121
| 30> H     0.8456882   -2.4969533    0.0000068
| 31> *
| 32>
| 33>                          ****END OF INPUT****
 Total Charge           Charge          ....    1
 Multiplicity           Mult            ....    2
 Number of Electrons    NEL             ....   61
Dispersion correction           -0.013725128
FINAL SINGLE POINT ENERGY      -382.657058147651
Dispersion correction             ... done (  0.1 sec)
Dispersion correction           -0.013693051
FINAL SINGLE POINT ENERGY      -382.658592662750
Dispersion correction             ... done (  0.1 sec)
Dispersion correction           -0.013688992
FINAL SINGLE POINT ENERGY      -382.658718253663
Dispersion correction             ... done (  0.0 sec)
Dispersion correction           -0.013688151
FINAL SINGLE POINT ENERGY      -382.658759363722
Dispersion correction             ... done (  0.1 sec)
Dispersion correction           -0.013688467
FINAL SINGLE POINT ENERGY      -382.658763268178
Dispersion correction             ... done (  0.1 sec)
                    ***********************HURRAY********************

CARTESIAN COORDINATES (ANGSTROEM)
---------------------------------
  C      0.867701   -1.426894    0.000009
  C      2.104681   -0.726891   -0.000008
  C      2.180676    0.679999   -0.000011
  C      1.032839    1.451453    0.000007
  C     -0.225377    0.776790    0.000013
  C     -0.251057   -0.644088    0.000015
  O     -1.552819   -1.077512    0.000026
  C     -2.314015   -0.006688    0.000019
  C     -1.562344    1.184872    0.000012
  H     -1.970743    2.195938    0.000010
  H     -3.393485   -0.173641    0.000020
  H      1.078053    2.543515   -0.000004
  H      3.162187    1.159989   -0.000028
  H      3.030832   -1.309672   -0.000021
  H      0.821931   -2.518210    0.000010

 Multiplicity           Mult            ....    2
 Number of Electrons    NEL             ....   61
 Basis Dimension        Dim             ....  138

ORBITAL ENERGIES
----------------
                 SPIN UP ORBITALS
  NO   OCC          E(Eh)            E(eV)
   0   1.0000     -19.499849      -530.6179
   1   1.0000     -10.532147      -286.5943
   2   1.0000     -10.503879      -285.8251
   3   1.0000     -10.464328      -284.7488
   4   1.0000     -10.461618      -284.6751
   5   1.0000     -10.458157      -284.5809
   6   1.0000     -10.453644      -284.4581
   7   1.0000     -10.449109      -284.3347
   8   1.0000     -10.426898      -283.7303
   9   1.0000      -1.369863       -37.2759
  10   1.0000      -1.091049       -29.6890
  11   1.0000      -1.037552       -28.2332
  12   1.0000      -0.982284       -26.7293
  13   1.0000      -0.956071       -26.0160
  14   1.0000      -0.864554       -23.5257
  15   1.0000      -0.827567       -22.5192
  16   1.0000      -0.808898       -22.0112
  17   1.0000      -0.745034       -20.2734
  18   1.0000      -0.721484       -19.6326
  19   1.0000      -0.705375       -19.1942
  20   1.0000      -0.695563       -18.9272
  21   1.0000      -0.656339       -17.8599
  22   1.0000      -0.647330       -17.6147
  23   1.0000      -0.634841       -17.2749
  24   1.0000      -0.606838       -16.5129
  25   1.0000      -0.582951       -15.8629
  26   1.0000      -0.576031       -15.6746
  27   1.0000      -0.558525       -15.1982
  28   1.0000      -0.529103       -14.3976
  29   1.0000      -0.466130       -12.6840
  30   1.0000      -0.450156       -12.2494
  31   0.0000      -0.243562        -6.6277
  32   0.0000      -0.188615        -5.1325
  33   0.0000      -0.162438        -4.4202
  34   0.0000      -0.082611        -2.2480
  35   0.0000      -0.064848        -1.7646

                 SPIN DOWN ORBITALS
  NO   OCC          E(Eh)            E(eV)
   0   1.0000     -19.499036      -530.5957
   1   1.0000     -10.526627      -286.4441
   2   1.0000     -10.502563      -285.7893
   3   1.0000     -10.461823      -284.6807
   4   1.0000     -10.461173      -284.6630
   5   1.0000     -10.452948      -284.4392
   6   1.0000     -10.449660      -284.3497
   7   1.0000     -10.449100      -284.3345
   8   1.0000     -10.429034      -283.7885
   9   1.0000      -1.365998       -37.1707
  10   1.0000      -1.085496       -29.5378
  11   1.0000      -1.028986       -28.0001
  12   1.0000      -0.978798       -26.6344
  13   1.0000      -0.942946       -25.6589
  14   1.0000      -0.860365       -23.4117
  15   1.0000      -0.821730       -22.3604
  16   1.0000      -0.803989       -21.8776
  17   1.0000      -0.741975       -20.1902
  18   1.0000      -0.717204       -19.5161
  19   1.0000      -0.693278       -18.8651
  20   1.0000      -0.688922       -18.7465
  21   1.0000      -0.654682       -17.8148
  22   1.0000      -0.644229       -17.5304
  23   1.0000      -0.632727       -17.2174
  24   1.0000      -0.604056       -16.4372
  25   1.0000      -0.574339       -15.6285
  26   1.0000      -0.564573       -15.3628
  27   1.0000      -0.557054       -15.1582
  28   1.0000      -0.499610       -13.5951
  29   1.0000      -0.459841       -12.5129
  30   0.0000      -0.360781        -9.8174
  31   0.0000      -0.209708        -5.7065
  32   0.0000      -0.176464        -4.8018
  33   0.0000      -0.137129        -3.7315
  34   0.0000      -0.081078        -2.2062

MULLIKEN ATOMIC CHARGES AND SPIN POPULATIONS
--------------------------------------------
   0 C :   -0.109963    0.005764
   1 C :   -0.046004    0.355380
   2 C :   -0.074113   -0.168548
   3 C :   -0.040394    0.275462
   4 C :    0.056393    0.002205
   5 C :    0.218619    0.061318
   6 O :   -0.167894    0.017057
   7 C :    0.174958    0.322309
   8 C :   -0.109892    0.181160
   9 H :    0.187748   -0.008922
  10 H :    0.212847   -0.017447
  11 H :    0.166117   -0.013338
  12 H :    0.171968    0.005915
  13 H :    0.186335   -0.017714
  14 H :    0.173275   -0.000601
Sum of atomic charges         :    1.0000000

LOEWDIN ATOMIC CHARGES AND SPIN POPULATIONS
-------------------------------------------
   0 C :   -0.071132    0.017983
   1 C :    0.002281    0.290200
   2 C :   -0.106029   -0.097062
   3 C :   -0.018632    0.222314
   4 C :   -0.024168    0.042817
   5 C :    0.070405    0.066564
   6 O :    0.059170    0.030152
   7 C :    0.102603    0.297060
   8 C :   -0.069116    0.157971
   9 H :    0.182171   -0.005087
  10 H :    0.179066   -0.009660
  11 H :    0.170866   -0.006963
  12 H :    0.169327    0.002859
  13 H :    0.172575   -0.008799
  14 H :    0.180614   -0.000349

  Mayer bond orders larger than 0.100000
B(  0-C ,  1-C ) :   1.2312 B(  0-C ,  5-C ) :   1.4913 B(  0-C , 14-H ) :   0.9597
B(  1-C ,  2-C ) :   1.3269 B(  1-C , 13-H ) :   0.9417 B(  2-C ,  3-C ) :   1.4651
B(  2-C , 12-H ) :   0.9496 B(  3-C ,  4-C ) :   1.1687 B(  3-C , 11-H ) :   0.9590
B(  4-C ,  5-C ) :   1.1805 B(  4-C ,  8-C ) :   1.3669 B(  5-C ,  6-O ) :   1.0252
B(  6-O ,  7-C ) :   1.2598 B(  7-C ,  8-C ) :   1.2741 B(  7-C , 10-H ) :   0.9435
B(  8-C ,  9-H ) :   0.9586

Dispersion correction           -0.013688724
FINAL SINGLE POINT ENERGY      -382.658764505747

DIPOLE MOMENT
-------------

Method             : SCF
Type of density    : Electron Density
Multiplicity       :   2
Irrep              :   0
Energy             :  -382.6450757817311228 Eh
Relativity type    :
Basis              : AO
                                X                 Y                 Z
Electronic contribution:     -2.760582174      -1.303950489       0.000051253
Nuclear contribution   :      2.540715655       1.757441244      -0.000063826
                        -----------------------------------------
Total Dipole Moment    :     -0.219866518       0.453490756      -0.000012573
                        -----------------------------------------
Magnitude (a.u.)       :      0.503979316
Magnitude (Debye)      :      1.281013618

VIBRATIONAL FREQUENCIES
-----------------------

Scaling factor for frequencies =  1.000000000  (already applied!)

     0:       0.00 cm**-1
     1:       0.00 cm**-1
     2:       0.00 cm**-1
     3:       0.00 cm**-1
     4:       0.00 cm**-1
     5:       0.00 cm**-1
     6:     198.84 cm**-1
     7:     241.04 cm**-1
     8:     402.07 cm**-1
     9:     411.73 cm**-1
    10:     507.07 cm**-1
    11:     517.84 cm**-1
    12:     565.52 cm**-1
    13:     615.66 cm**-1
    14:     737.82 cm**-1
    15:     783.09 cm**-1
    16:     787.73 cm**-1
    17:     839.25 cm**-1
    18:     872.45 cm**-1
    19:     894.30 cm**-1
    20:     902.37 cm**-1
    21:     941.78 cm**-1
    22:     991.45 cm**-1
    23:    1019.78 cm**-1
    24:    1028.52 cm**-1
    25:    1068.74 cm**-1
    26:    1125.79 cm**-1
    27:    1157.33 cm**-1
    28:    1173.53 cm**-1
    29:    1223.34 cm**-1
    30:    1293.67 cm**-1
    31:    1296.41 cm**-1
    32:    1412.23 cm**-1
    33:    1425.26 cm**-1
    34:    1477.18 cm**-1
    35:    1496.03 cm**-1
    36:    1531.42 cm**-1
    37:    1629.61 cm**-1
    38:    1706.44 cm**-1
    39:    3226.95 cm**-1
    40:    3234.69 cm**-1
    41:    3244.85 cm**-1
    42:    3248.37 cm**-1
    43:    3272.56 cm**-1
    44:    3286.20 cm**-1

IR SPECTRUM
-----------

 Mode   freq       eps      Int      T**2         TX        TY        TZ
       cm**-1   L/(mol*cm) km/mol    a.u.
----------------------------------------------------------------------------
  6:    198.84   0.002027   10.24  0.003182  (-0.000001 -0.000001  0.056405)
  7:    241.04   0.000010    0.05  0.000013  (-0.000001 -0.000002 -0.003672)
  8:    402.07   0.001874    9.47  0.001454  (-0.000000 -0.000003  0.038135)
  9:    411.73   0.001621    8.19  0.001229  ( 0.028606  0.020262  0.000001)
 10:    507.07   0.000664    3.36  0.000409  (-0.000000  0.000002  0.020219)
 11:    517.84   0.000514    2.60  0.000310  ( 0.013340  0.011489  0.000000)
 12:    565.52   0.000008    0.04  0.000004  (-0.000002 -0.000004  0.002039)
 13:    615.66   0.000237    1.20  0.000120  ( 0.010938  0.000826 -0.000000)
 14:    737.82   0.004271   21.58  0.001806  (-0.000001 -0.000003 -0.042500)
 15:    783.09   0.000290    1.47  0.000116  ( 0.002332 -0.010493  0.000004)
 16:    787.73   0.002263   11.44  0.000897  ( 0.000000 -0.000001 -0.029942)
 17:    839.25   0.010245   51.78  0.003810  (-0.000002 -0.000001 -0.061722)
 18:    872.45   0.001985   10.03  0.000710  ( 0.006042  0.025953 -0.000000)
 19:    894.30   0.002992   15.12  0.001044  (-0.030421 -0.010896  0.000004)
 20:    902.37   0.000242    1.23  0.000084  ( 0.000000  0.000002  0.009157)
 21:    941.78   0.000101    0.51  0.000034  ( 0.000003 -0.000001 -0.005788)
 22:    991.45   0.000614    3.10  0.000193  ( 0.000001 -0.000001 -0.013903)
 23:   1019.78   0.001809    9.14  0.000554  ( 0.019375 -0.013355  0.000000)
 24:   1028.52   0.000202    1.02  0.000061  (-0.000002  0.000001 -0.007821)
 25:   1068.74   0.000112    0.57  0.000033  (-0.002991  0.004878 -0.000000)
 26:   1125.79   0.000167    0.84  0.000046  (-0.000050 -0.006801 -0.000000)
 27:   1157.33   0.003206   16.20  0.000864  (-0.019736  0.021793  0.000001)
 28:   1173.53   0.007146   36.11  0.001900  (-0.043444 -0.003583  0.000000)
 29:   1223.34   0.011834   59.80  0.003019  ( 0.042735  0.034531 -0.000000)
 30:   1293.67   0.005078   25.66  0.001225  ( 0.031775 -0.014669 -0.000000)
 31:   1296.41   0.008143   41.15  0.001960  ( 0.042507 -0.012385  0.000000)
 32:   1412.23   0.005273   26.65  0.001165  ( 0.033293 -0.007532 -0.000000)
 33:   1425.26   0.011250   56.86  0.002463  ( 0.000892 -0.049624 -0.000000)
 34:   1477.18   0.000707    3.57  0.000149  ( 0.011921 -0.002677 -0.000000)
 35:   1496.03   0.032341  163.44  0.006746  ( 0.080353  0.017014 -0.000001)
 36:   1531.42   0.010710   54.12  0.002182  (-0.028834  0.036756  0.000000)
 37:   1629.61   0.000228    1.15  0.000044  ( 0.003865 -0.005355  0.000000)
 38:   1706.44   0.008698   43.96  0.001591  (-0.034893  0.019315  0.000000)
 39:   3226.95   0.000136    0.69  0.000013  (-0.003274 -0.001563  0.000000)
 40:   3234.69   0.000524    2.65  0.000051  ( 0.005659 -0.004304  0.000000)
 41:   3244.85   0.002762   13.96  0.000266  ( 0.006094  0.015116 -0.000000)
 42:   3248.37   0.001602    8.09  0.000154  ( 0.007471 -0.009902 -0.000000)
 43:   3272.56   0.004507   22.77  0.000430  ( 0.010727  0.017739 -0.000000)
 44:   3286.20   0.005113   25.84  0.000486  (-0.020498  0.008087  0.000000)

--------------------------
THERMOCHEMISTRY AT 298.15K
--------------------------

Temperature         ...   298.15 K
Pressure            ...     1.00 atm
Total Mass          ...   118.13 AMU
Quasi RRHO          ...     True
Cut-Off Frequency   ...     1.00 cm^-1

Throughout the following assumptions are being made:
  (1) The electronic state is orbitally nondegenerate
      but the spin degeneracy is treated
  (2) There are no thermally accessible electronically excited states
  (3) Hindered rotations indicated by low frequency modes are not
      treated as such but are treated as vibrations and this may
      cause some error
  (4) All equations used are the standard statistical mechanics
      equations for an ideal gas
  (5) All vibrations are strictly harmonic

freq.     198.84  E(vib)   ...       0.35
freq.     241.04  E(vib)   ...       0.31
freq.     402.07  E(vib)   ...       0.19
freq.     411.73  E(vib)   ...       0.19
freq.     507.07  E(vib)   ...       0.14
freq.     517.84  E(vib)   ...       0.13
freq.     565.52  E(vib)   ...       0.11
freq.     615.66  E(vib)   ...       0.10
freq.     737.82  E(vib)   ...       0.06
freq.     783.09  E(vib)   ...       0.05
freq.     787.73  E(vib)   ...       0.05
freq.     839.25  E(vib)   ...       0.04
freq.     872.45  E(vib)   ...       0.04
freq.     894.30  E(vib)   ...       0.03
freq.     902.37  E(vib)   ...       0.03
freq.     941.78  E(vib)   ...       0.03
freq.     991.45  E(vib)   ...       0.02
freq.    1019.78  E(vib)   ...       0.02
freq.    1028.52  E(vib)   ...       0.02
freq.    1068.74  E(vib)   ...       0.02
freq.    1125.79  E(vib)   ...       0.01
freq.    1157.33  E(vib)   ...       0.01
freq.    1173.53  E(vib)   ...       0.01
freq.    1223.34  E(vib)   ...       0.01
freq.    1293.67  E(vib)   ...       0.01
freq.    1296.41  E(vib)   ...       0.01
freq.    1412.23  E(vib)   ...       0.00
freq.    1425.26  E(vib)   ...       0.00
freq.    1477.18  E(vib)   ...       0.00
freq.    1496.03  E(vib)   ...       0.00
freq.    1531.42  E(vib)   ...       0.00
freq.    1629.61  E(vib)   ...       0.00
freq.    1706.44  E(vib)   ...       0.00
freq.    3226.95  E(vib)   ...       0.00
freq.    3234.69  E(vib)   ...       0.00
freq.    3244.85  E(vib)   ...       0.00
freq.    3248.37  E(vib)   ...       0.00
freq.    3272.56  E(vib)   ...       0.00
freq.    3286.20  E(vib)   ...       0.00

------------
INNER ENERGY
------------

The inner energy is: U= E(el) + E(ZPE) + E(vib) + E(rot) + E(trans)
    E(el)   - is the total energy from the electronic structure calculation
              = E(kin-el) + E(nuc-el) + E(el-el) + E(nuc-nuc)
    E(ZPE)  - the the zero temperature vibrational energy from the frequency calculation
    E(vib)  - the the finite temperature correction to E(ZPE) due to population
              of excited vibrational states
    E(rot)  - is the rotational thermal energy
    E(trans)- is the translational thermal energy

Summary of contributions to the inner energy U:
Electronic energy                ...   -382.65876451 Eh
Zero point energy                ...      0.11798383 Eh      74.04 kcal/mol
Thermal vibrational correction   ...      0.00324126 Eh       2.03 kcal/mol
Thermal rotational correction    ...      0.00141627 Eh       0.89 kcal/mol
Thermal translational correction ...      0.00141627 Eh       0.89 kcal/mol
-----------------------------------------------------------------------
Total thermal energy                   -382.53470686 Eh

Summary of corrections to the electronic energy:
(perhaps to be used in another calculation)
Total thermal correction                  0.00607381 Eh       3.81 kcal/mol
Non-thermal (ZPE) correction              0.11798383 Eh      74.04 kcal/mol
-----------------------------------------------------------------------
Total correction                          0.12405764 Eh      77.85 kcal/mol

--------
ENTHALPY
--------

The enthalpy is H = U + kB*T
                kB is Boltzmann's constant
Total thermal energy              ...   -382.53470686 Eh
Thermal Enthalpy correction       ...      0.00094421 Eh       0.59 kcal/mol
-----------------------------------------------------------------------
Total Enthalpy                    ...   -382.53376266 Eh

Note: Rotational entropy computed according to Herzberg
Infrared and Raman Spectra, Chapter V,1, Van Nostrand Reinhold, 1945
Point Group:  Cs, Symmetry Number:   1
Rotational constants in cm-1:     0.129539     0.055719     0.038960

Vibrational entropy computed according to the QRRHO of S. Grimme
Chem.Eur.J. 2012 18 9955 using a reference frequency of 100.0 cm-1

-------
ENTROPY
-------

The entropy contributions are T*S = T*(S(el)+S(vib)+S(rot)+S(trans))
     S(el)   - electronic entropy
     S(vib)  - vibrational entropy
     S(rot)  - rotational entropy
     S(trans)- translational entropy
The entropies will be listed as multiplied by the temperature to get
units of energy

Electronic entropy                ...      0.00065446 Eh      0.41 kcal/mol
Vibrational entropy               ...      0.00480852 Eh      3.02 kcal/mol
Rotational entropy                ...      0.01337082 Eh      8.39 kcal/mol
Translational entropy             ...      0.01910727 Eh     11.99 kcal/mol
-----------------------------------------------------------------------
Final entropy term                ...      0.03794107 Eh     23.81 kcal/mol

In case the symmetry of your molecule has not been determined correctly
or in case you have a reason to use a different symmetry number we print
out the resulting rotational entropy values for sn=1,12:

 non-linear molecules -----------------------------------
|  sn= 1 | S(rot)=       0.01337082 Eh      8.39 kcal/mol|
|  sn= 2 | S(rot)=       0.01271637 Eh      7.98 kcal/mol|
|  sn= 3 | S(rot)=       0.01233353 Eh      7.74 kcal/mol|
|  sn= 4 | S(rot)=       0.01206191 Eh      7.57 kcal/mol|
|  sn= 5 | S(rot)=       0.01185122 Eh      7.44 kcal/mol|
|  sn= 6 | S(rot)=       0.01167908 Eh      7.33 kcal/mol|
|  sn= 7 | S(rot)=       0.01153353 Eh      7.24 kcal/mol|
|  sn= 8 | S(rot)=       0.01140745 Eh      7.16 kcal/mol|
|  sn= 9 | S(rot)=       0.01129624 Eh      7.09 kcal/mol|
|  sn=10 | S(rot)=       0.01119676 Eh      7.03 kcal/mol|
|  sn=11 | S(rot)=       0.01110677 Eh      6.97 kcal/mol|
|  sn=12 | S(rot)=       0.01102462 Eh      6.92 kcal/mol|
 linear molecules ---------------------------------------
|  Dinfh | S(rot)=       0.00838987 Eh      5.26 kcal/mol|
|  Cinfv | S(rot)=       0.00904433 Eh      5.68 kcal/mol|
 --------------------------------------------------------

-------------------
GIBBS FREE ENERGY
-------------------

The Gibbs free energy is G = H - T*S

Total enthalpy                    ...   -382.53376266 Eh

                             ****ORCA TERMINATED NORMALLY****
TOTAL RUN TIME: 0 days 0 hours 9 minutes 56 seconds 313 msec
