                         Program Version 6.0.0  -   RELEASE  -
|  1> !PBE0 opt aug-cc-pVTZ d3 TightSCF SlowConv RIJCOSX defgrid2
|  2>
|  3> %pal
|  4> nprocs 8
|  5> end
|  6>
|  7> %scf
|  8> MaxIter 1500
|  9> end
| 10>
| 11> %maxcore 3500
| 12>
| 13> !CPCM
| 14> %cpcm smd true
| 15> SMDsolvent "MeCN"
| 16> surfacetype gepol_ses
| 17> rsolv 2.19
| 18> end
| 19>
| 20> * xyz -1 2
| 21> C          -1.22535307927293     -0.03882807002799     -0.00002255469277
| 22> C          -1.22206264378164      1.41582015720061     -0.00002423880206
| 23> C           0.00004637420421      2.08121905033007     -0.00000415463824
| 24> C           1.22212161683371      1.41575862792076      0.00002170232485
| 25> C           1.22534433396412     -0.03888819251674      0.00002507087618
| 26> C          -0.00002135567409     -0.71608207495025      0.00000157424078
| 27> H          -0.00004774645346     -1.81053735349218      0.00000261550832
| 28> C           2.43402384370652     -0.77080587803239      0.00007579493229
| 29> N           3.44413671726320     -1.36247120639636      0.00011250089172
| 30> H           2.16848850432676      1.96074544120089      0.00003301965359
| 31> H           0.00007494156619      3.17901522614598     -0.00000842096167
| 32> H          -2.16840192148197      1.96085605610510     -0.00003754989011
| 33> C          -2.43406244869294     -0.77069683887805     -0.00005052688718
| 34> N          -3.44419623650770     -1.36232524460946     -0.00007393255569
| 35> *
| 36>
| 37>                          ****END OF INPUT****
 Total Charge           Charge          ....   -1
 Multiplicity           Mult            ....    2
 Number of Electrons    NEL             ....   67
Dispersion correction           -0.014129699
FINAL SINGLE POINT ENERGY      -416.498958409078
Dispersion correction             ... done (  0.1 sec)
Dispersion correction           -0.014208554
FINAL SINGLE POINT ENERGY      -416.500121232186
Dispersion correction             ... done (  0.1 sec)
Dispersion correction           -0.014221930
FINAL SINGLE POINT ENERGY      -416.500153382444
Dispersion correction             ... done (  0.1 sec)
Dispersion correction           -0.014223823
FINAL SINGLE POINT ENERGY      -416.500159249014
Dispersion correction             ... done (  0.1 sec)
Dispersion correction           -0.014223334
FINAL SINGLE POINT ENERGY      -416.500160836290
Dispersion correction             ... done (  0.1 sec)
                    ***********************HURRAY********************

CARTESIAN COORDINATES (ANGSTROEM)
---------------------------------
  C     -1.210980   -0.036835    0.000012
  C     -1.215156    1.410705   -0.000252
  C      0.000046    2.075107   -0.000005
  C      1.215214    1.410648    0.000256
  C      1.210972   -0.036889    0.000024
  C     -0.000019   -0.722517    0.000024
  H     -0.000039   -1.806101    0.000021
  C      2.410572   -0.762240   -0.000200
  N      3.418014   -1.343961   -0.000396
  H      2.152250    1.950140    0.000974
  H      0.000077    3.160417   -0.000015
  H     -2.152166    1.950242   -0.000987
  C     -2.410614   -0.762129    0.000212
  N     -3.418080   -1.343809    0.000382

 Multiplicity           Mult            ....    2
 Number of Electrons    NEL             ....   67
 Basis Dimension        Dim             ....  552

ORBITAL ENERGIES
----------------
                 SPIN UP ORBITALS
  NO   OCC          E(Eh)            E(eV)
   0   1.0000     -14.366144      -390.9227
   1   1.0000     -14.366142      -390.9226
   2   1.0000     -10.253533      -279.0128
   3   1.0000     -10.253526      -279.0126
   4   1.0000     -10.241610      -278.6884
   5   1.0000     -10.238539      -278.6048
   6   1.0000     -10.238478      -278.6031
   7   1.0000     -10.217642      -278.0362
   8   1.0000     -10.211042      -277.8566
   9   1.0000     -10.211007      -277.8556
  10   1.0000      -0.925778       -25.1917
  11   1.0000      -0.922254       -25.0958
  12   1.0000      -0.876750       -23.8576
  13   1.0000      -0.788358       -21.4523
  14   1.0000      -0.778179       -21.1753
  15   1.0000      -0.660156       -17.9638
  16   1.0000      -0.645525       -17.5656
  17   1.0000      -0.578126       -15.7316
  18   1.0000      -0.496994       -13.5239
  19   1.0000      -0.486602       -13.2411
  20   1.0000      -0.464759       -12.6467
  21   1.0000      -0.435067       -11.8388
  22   1.0000      -0.416689       -11.3387
  23   1.0000      -0.386370       -10.5137
  24   1.0000      -0.385137       -10.4801
  25   1.0000      -0.382632       -10.4119
  26   1.0000      -0.367847       -10.0096
  27   1.0000      -0.367206        -9.9922
  28   1.0000      -0.342507        -9.3201
  29   1.0000      -0.335716        -9.1353
  30   1.0000      -0.330509        -8.9936
  31   1.0000      -0.273907        -7.4534
  32   1.0000      -0.265093        -7.2136
  33   1.0000      -0.113163        -3.0793
  34   0.0000      -0.028291        -0.7698
  35   0.0000       0.001847         0.0503
  36   0.0000       0.017888         0.4868
  37   0.0000       0.019068         0.5189
  38   0.0000       0.035248         0.9591

                 SPIN DOWN ORBITALS
  NO   OCC          E(Eh)            E(eV)
   0   1.0000     -14.364123      -390.8677
   1   1.0000     -14.364120      -390.8676
   2   1.0000     -10.253576      -279.0140
   3   1.0000     -10.253569      -279.0138
   4   1.0000     -10.242459      -278.7115
   5   1.0000     -10.236790      -278.5572
   6   1.0000     -10.236762      -278.5565
   7   1.0000     -10.219822      -278.0955
   8   1.0000     -10.205106      -277.6951
   9   1.0000     -10.205099      -277.6949
  10   1.0000      -0.922435       -25.1007
  11   1.0000      -0.919126       -25.0107
  12   1.0000      -0.871752       -23.7216
  13   1.0000      -0.779806       -21.2196
  14   1.0000      -0.773513       -21.0484
  15   1.0000      -0.646253       -17.5854
  16   1.0000      -0.643431       -17.5086
  17   1.0000      -0.577099       -15.7037
  18   1.0000      -0.491593       -13.3769
  19   1.0000      -0.484440       -13.1823
  20   1.0000      -0.461420       -12.5559
  21   1.0000      -0.434723       -11.8294
  22   1.0000      -0.403751       -10.9866
  23   1.0000      -0.382881       -10.4187
  24   1.0000      -0.381956       -10.3935
  25   1.0000      -0.371073       -10.0974
  26   1.0000      -0.365547        -9.9470
  27   1.0000      -0.364870        -9.9286
  28   1.0000      -0.334328        -9.0975
  29   1.0000      -0.329050        -8.9539
  30   1.0000      -0.328675        -8.9437
  31   1.0000      -0.262407        -7.1405
  32   1.0000      -0.234650        -6.3852
  33   0.0000      -0.028666        -0.7800
  34   0.0000      -0.023458        -0.6383
  35   0.0000       0.003814         0.1038
  36   0.0000       0.020167         0.5488
  37   0.0000       0.020267         0.5515

MULLIKEN ATOMIC CHARGES AND SPIN POPULATIONS
--------------------------------------------
   0 C :    1.155116    0.106324
   1 C :   -0.936786    0.421497
   2 C :   -0.582623   -0.119724
   3 C :   -0.936090    0.421539
   4 C :    1.153475    0.106296
   5 C :   -1.106624   -0.041084
   6 H :    0.006450    0.008673
   7 C :    0.483987   -0.017686
   8 N :   -0.890776    0.099326
   9 H :    0.202712   -0.028192
  10 H :    0.654273   -0.010380
  11 H :    0.203599   -0.028198
  12 C :    0.483963   -0.017716
  13 N :   -0.890674    0.099326
Sum of atomic charges         :   -1.0000000

LOEWDIN ATOMIC CHARGES AND SPIN POPULATIONS
-------------------------------------------
   0 C :   -0.262026    0.103124
   1 C :    0.157070    0.197809
   2 C :    0.126530    0.057983
   3 C :    0.157063    0.197808
   4 C :   -0.262032    0.103122
   5 C :    0.143297    0.014523
   6 H :   -0.166265   -0.001072
   7 C :   -0.329442    0.044729
   8 N :    0.178779    0.074598
   9 H :   -0.203386    0.047379
  10 H :   -0.185543   -0.006709
  11 H :   -0.203385    0.047379
  12 C :   -0.329445    0.044729
  13 N :    0.178783    0.074599

  Mayer bond orders larger than 0.100000
B(  0-C ,  1-C ) :   0.1897 B(  0-C ,  2-C ) :   0.1225 B(  0-C ,  4-C ) :   0.2636
B(  0-C ,  5-C ) :   0.5921 B(  0-C ,  6-H ) :  -0.1065 B(  0-C , 11-H ) :  -0.1368
B(  0-C , 12-C ) :   0.8545 B(  0-C , 13-N ) :   0.1063 B(  1-C ,  2-C ) :   1.2872
B(  1-C ,  3-C ) :  -0.1056 B(  1-C ,  5-C ) :  -0.2039 B(  1-C , 11-H ) :   1.1291
B(  1-C , 12-C ) :   0.2977 B(  2-C ,  3-C ) :   1.2882 B(  2-C ,  4-C ) :   0.1227
B(  2-C , 10-H ) :   0.4112 B(  3-C ,  4-C ) :   0.1893 B(  3-C ,  5-C ) :  -0.2040
B(  3-C ,  7-C ) :   0.2968 B(  3-C ,  9-H ) :   1.1303 B(  4-C ,  5-C ) :   0.5912
B(  4-C ,  6-H ) :  -0.1061 B(  4-C ,  7-C ) :   0.8565 B(  4-C ,  8-N ) :   0.1080
B(  4-C ,  9-H ) :  -0.1374 B(  5-C ,  6-H ) :   1.3530 B(  5-C ,  7-C ) :   0.1073
B(  5-C , 12-C ) :   0.1081 B(  7-C ,  8-N ) :   1.5828 B(  7-C , 12-C ) :   0.2122
B( 12-C , 13-N ) :   1.5829

Dispersion correction           -0.014222903
FINAL SINGLE POINT ENERGY      -416.500160634480

DIPOLE MOMENT
-------------

Method             : SCF
Type of density    : Electron Density
Multiplicity       :   2
Irrep              :   0
Energy             :  -416.4859377310269792 Eh
Relativity type    :
Basis              : AO
                                X                 Y                 Z
Electronic contribution:     -0.000110489      -3.170655536       0.000033763
Nuclear contribution   :      0.000125387       4.956517156      -0.000026277
                        -----------------------------------------
Total Dipole Moment    :      0.000014898       1.785861620       0.000007485
                        -----------------------------------------
Magnitude (a.u.)       :      1.785861620
Magnitude (Debye)      :      4.539299494

Rotational constants in cm-1:             0.088083             0.030823             0.022833
Rotational constants in MHz :          2640.657818           924.050051           684.516129

                             ****ORCA TERMINATED NORMALLY****
TOTAL RUN TIME: 0 days 0 hours 24 minutes 5 seconds 912 msec
