                         Program Version 6.0.0  -   RELEASE  -
|  1> !PBE0 opt aug-cc-pVTZ d3 TightSCF SlowConv RIJCOSX defgrid2
|  2>
|  3> %pal
|  4> nprocs 8
|  5> end
|  6>
|  7> %scf
|  8> MaxIter 1500
|  9> end
| 10>
| 11> %maxcore 3500
| 12>
| 13> !CPCM
| 14> %cpcm smd true
| 15> SMDsolvent "MeCN"
| 16> surfacetype gepol_ses
| 17> rsolv 2.19
| 18> end
| 19>
| 20> * xyz -1 2
| 21> C           0.68315502285048     -1.23058998559791     -0.00197785400563
| 22> C          -0.69097039389614     -1.22820808682412     -0.00110778792906
| 23> C          -1.39878915837568      0.00192561974512      0.00006123035750
| 24> C          -0.67088260295619      1.21697689217912      0.00034729291936
| 25> C           0.70599002665524      1.19710781410292     -0.00056169847882
| 26> C           1.43890972865005     -0.02356673016238     -0.00174160392592
| 27> C           2.88835051512998     -0.09555430971111     -0.00265662366589
| 28> O           3.51113560358604     -1.16132419888811     -0.00429988492646
| 29> C           3.67215429347512      1.21312233920081     -0.00319382492201
| 30> H           3.44490427270519      1.82862721041062      0.88658626511100
| 31> H           4.74564035342603      0.96713680695522     -0.00513239151038
| 32> H           3.44193148262032      1.82994436135706     -0.89128425723845
| 33> H           1.24130264942652      2.15210104681416     -0.00032125400509
| 34> H          -1.23634900308120      2.15002194871812      0.00128004669295
| 35> N          -2.79949677516438      0.01738261553575      0.00104508920787
| 36> O          -3.38660343043673      1.11542368371417      0.00320409549424
| 37> O          -3.41030224545591     -1.06695584054066      0.00182719273433
| 38> H          -1.27295707729704     -2.15125183977829     -0.00128101747157
| 39> H           1.24384223813830     -2.16976914723049     -0.00287851443797
| 40> *
| 41>
| 42>                          ****END OF INPUT****
 Total Charge           Charge          ....   -1
 Multiplicity           Mult            ....    2
 Number of Electrons    NEL             ....   87
Dispersion correction           -0.018307986
FINAL SINGLE POINT ENERGY      -589.109643511654
Dispersion correction             ... done (  0.1 sec)
Dispersion correction           -0.018385762
FINAL SINGLE POINT ENERGY      -589.111617518674
Dispersion correction             ... done (  0.0 sec)
Dispersion correction           -0.018407205
FINAL SINGLE POINT ENERGY      -589.111920512941
Dispersion correction             ... done (  0.1 sec)
FINAL SINGLE POINT ENERGY      -589.111898257408
Dispersion correction             ... done (  0.1 sec)
Dispersion correction           -0.018398682
FINAL SINGLE POINT ENERGY      -589.111991146116
Dispersion correction             ... done (  0.1 sec)
Dispersion correction           -0.018397430
FINAL SINGLE POINT ENERGY      -589.111992413458
Dispersion correction             ... done (  0.1 sec)
                    ***********************HURRAY********************

CARTESIAN COORDINATES (ANGSTROEM)
---------------------------------
  C      0.683503   -1.225795   -0.002666
  C     -0.686541   -1.221758   -0.001281
  C     -1.385620    0.004526   -0.000083
  C     -0.659031    1.212365   -0.001398
  C      0.713885    1.185984   -0.002744
  C      1.427302   -0.028303   -0.003175
  C      2.886196   -0.083098   -0.004014
  O      3.490445   -1.154847   -0.005076
  C      3.655437    1.211123   -0.001627
  H      3.414271    1.810662    0.879694
  H      4.721946    0.993705   -0.004183
  H      3.411215    1.815983   -0.878342
  H      1.249675    2.127079   -0.003779
  H     -1.200054    2.147534   -0.001026
  N     -2.768710    0.020487    0.002633
  O     -3.374187    1.130571    0.004017
  O     -3.400226   -1.074997    0.005152
  H     -1.250820   -2.143345   -0.000864
  H      1.222280   -2.165324   -0.003324

 Multiplicity           Mult            ....    2
 Number of Electrons    NEL             ....   87
 Basis Dimension        Dim             ....  713

ORBITAL ENERGIES
----------------
                 SPIN UP ORBITALS
  NO   OCC          E(Eh)            E(eV)
   0   1.0000     -19.175565      -521.7937
   1   1.0000     -19.174195      -521.7564
   2   1.0000     -19.173990      -521.7508
   3   1.0000     -14.539818      -395.6486
   4   1.0000     -10.293318      -280.0954
   5   1.0000     -10.254355      -279.0352
   6   1.0000     -10.224886      -278.2333
   7   1.0000     -10.221584      -278.1434
   8   1.0000     -10.220128      -278.1038
   9   1.0000     -10.219981      -278.0998
  10   1.0000     -10.219915      -278.0980
  11   1.0000     -10.205799      -277.7139
  12   1.0000      -1.178094       -32.0576
  13   1.0000      -1.048797       -28.5392
  14   1.0000      -1.001530       -27.2530
  15   1.0000      -0.888029       -24.1645
  16   1.0000      -0.816324       -22.2133
  17   1.0000      -0.771137       -20.9837
  18   1.0000      -0.753712       -20.5096
  19   1.0000      -0.704161       -19.1612
  20   1.0000      -0.617279       -16.7970
  21   1.0000      -0.602387       -16.3918
  22   1.0000      -0.559842       -15.2341
  23   1.0000      -0.527691       -14.3592
  24   1.0000      -0.503359       -13.6971
  25   1.0000      -0.492413       -13.3992
  26   1.0000      -0.481565       -13.1041
  27   1.0000      -0.454658       -12.3719
  28   1.0000      -0.448381       -12.2011
  29   1.0000      -0.445620       -12.1259
  30   1.0000      -0.428985       -11.6733
  31   1.0000      -0.414982       -11.2922
  32   1.0000      -0.405150       -11.0247
  33   1.0000      -0.383272       -10.4294
  34   1.0000      -0.375806       -10.2262
  35   1.0000      -0.357144        -9.7184
  36   1.0000      -0.339319        -9.2334
  37   1.0000      -0.293349        -7.9824
  38   1.0000      -0.283556        -7.7160
  39   1.0000      -0.272150        -7.4056
  40   1.0000      -0.269582        -7.3357
  41   1.0000      -0.254844        -6.9346
  42   1.0000      -0.252846        -6.8803
  43   1.0000      -0.144526        -3.9328
  44   0.0000      -0.031959        -0.8697
  45   0.0000      -0.001374        -0.0374
  46   0.0000       0.002656         0.0723
  47   0.0000       0.015399         0.4190
  48   0.0000       0.019446         0.5291

                 SPIN DOWN ORBITALS
  NO   OCC          E(Eh)            E(eV)
   0   1.0000     -19.173070      -521.7258
   1   1.0000     -19.169255      -521.6219
   2   1.0000     -19.168985      -521.6146
   3   1.0000     -14.534038      -395.4913
   4   1.0000     -10.293018      -280.0872
   5   1.0000     -10.253837      -279.0211
   6   1.0000     -10.225578      -278.2521
   7   1.0000     -10.222137      -278.1585
   8   1.0000     -10.218652      -278.0637
   9   1.0000     -10.218301      -278.0541
  10   1.0000     -10.217440      -278.0307
  11   1.0000     -10.205840      -277.7150
  12   1.0000      -1.167483       -31.7688
  13   1.0000      -1.044373       -28.4188
  14   1.0000      -0.991737       -26.9865
  15   1.0000      -0.884635       -24.0722
  16   1.0000      -0.809196       -22.0194
  17   1.0000      -0.768532       -20.9128
  18   1.0000      -0.750193       -20.4138
  19   1.0000      -0.696507       -18.9529
  20   1.0000      -0.616538       -16.7769
  21   1.0000      -0.597516       -16.2592
  22   1.0000      -0.557828       -15.1793
  23   1.0000      -0.521470       -14.1899
  24   1.0000      -0.488393       -13.2899
  25   1.0000      -0.479127       -13.0377
  26   1.0000      -0.472128       -12.8472
  27   1.0000      -0.450814       -12.2673
  28   1.0000      -0.447127       -12.1670
  29   1.0000      -0.440005       -11.9731
  30   1.0000      -0.428358       -11.6562
  31   1.0000      -0.413418       -11.2497
  32   1.0000      -0.404269       -11.0007
  33   1.0000      -0.375871       -10.2280
  34   1.0000      -0.374594       -10.1932
  35   1.0000      -0.346617        -9.4319
  36   1.0000      -0.338686        -9.2161
  37   1.0000      -0.278963        -7.5910
  38   1.0000      -0.267237        -7.2719
  39   1.0000      -0.253171        -6.8891
  40   1.0000      -0.252119        -6.8605
  41   1.0000      -0.251276        -6.8376
  42   1.0000      -0.248436        -6.7603
  43   0.0000      -0.067007        -1.8234
  44   0.0000      -0.002408        -0.0655
  45   0.0000       0.001448         0.0394
  46   0.0000       0.003942         0.1073
  47   0.0000       0.016594         0.4516

MULLIKEN ATOMIC CHARGES AND SPIN POPULATIONS
--------------------------------------------
   0 C :   -0.938908   -0.027602
   1 C :   -0.531700    0.103328
   2 C :    0.361533    0.026220
   3 C :   -0.793305    0.116985
   4 C :   -0.519082   -0.025987
   5 C :    1.103025    0.166146
   6 C :    0.640108    0.015329
   7 O :   -0.970754    0.091559
   8 C :   -0.672141   -0.004026
   9 H :    0.292735    0.002507
  10 H :    0.195343   -0.001150
  11 H :    0.292789    0.002512
  12 H :    0.217968   -0.000058
  13 H :    0.564423   -0.004235
  14 N :    0.604511    0.156413
  15 O :   -0.848021    0.192946
  16 O :   -0.844726    0.195206
  17 H :    0.638321   -0.005638
  18 H :    0.207880   -0.000454
Sum of atomic charges         :   -1.0000000

LOEWDIN ATOMIC CHARGES AND SPIN POPULATIONS
-------------------------------------------
   0 C :    0.173105    0.019784
   1 C :    0.180695    0.050007
   2 C :   -0.316006    0.062449
   3 C :    0.185500    0.055652
   4 C :    0.183454    0.022405
   5 C :   -0.161806    0.084113
   6 C :   -0.591859    0.053612
   7 O :    0.446959    0.076067
   8 C :    0.553685    0.006612
   9 H :   -0.166539    0.001544
  10 H :   -0.185760   -0.000074
  11 H :   -0.166953    0.001537
  12 H :   -0.188970   -0.001734
  13 H :   -0.213680    0.012673
  14 N :   -0.838722    0.194517
  15 O :    0.257856    0.174756
  16 O :    0.258157    0.176718
  17 H :   -0.214296    0.011290
  18 H :   -0.194819   -0.001927

  Mayer bond orders larger than 0.100000
B(  0-C ,  1-C ) :   1.5909 B(  0-C ,  2-C ) :  -0.3615 B(  0-C ,  4-C ) :  -0.4235
B(  0-C ,  5-C ) :   0.3489 B(  0-C ,  6-C ) :   0.2067 B(  0-C , 16-O ) :  -0.1409
B(  0-C , 18-H ) :   1.0145 B(  1-C ,  2-C ) :   0.9539 B(  1-C ,  3-C ) :   0.2110
B(  1-C ,  4-C ) :  -0.1613 B(  1-C ,  5-C ) :   0.1912 B(  1-C , 14-N ) :  -0.1491
B(  1-C , 17-H ) :   0.1994 B(  2-C ,  3-C ) :   0.8522 B(  2-C ,  4-C ) :  -0.2790
B(  2-C , 14-N ) :   1.3880 B(  2-C , 15-O ) :   0.4289 B(  2-C , 16-O ) :   0.4362
B(  3-C ,  4-C ) :   1.2470 B(  3-C ,  5-C ) :   0.2379 B(  3-C , 13-H ) :   0.3036
B(  3-C , 14-N ) :  -0.2231 B(  4-C ,  5-C ) :   0.4779 B(  4-C ,  6-C ) :   0.1210
B(  4-C , 12-H ) :   1.0988 B(  4-C , 15-O ) :  -0.1336 B(  5-C ,  6-C ) :   0.4433
B(  5-C ,  7-O ) :   0.2236 B(  6-C ,  7-O ) :   0.7838 B(  6-C ,  8-C ) :   0.9620
B(  7-O , 18-H ) :   0.1741 B(  8-C ,  9-H ) :   0.9164 B(  8-C , 10-H ) :   0.9540
B(  8-C , 11-H ) :   0.9168 B( 12-H , 18-H ) :   0.1034 B( 14-N , 15-O ) :   0.7410
B( 14-N , 16-O ) :   0.7592 B( 15-O , 16-O ) :   0.1012

Dispersion correction           -0.018396235
FINAL SINGLE POINT ENERGY      -589.111995197562

DIPOLE MOMENT
-------------

Method             : SCF
Type of density    : Electron Density
Multiplicity       :   2
Irrep              :   0
Energy             :  -589.0935989628269454 Eh
Relativity type    :
Basis              : AO
                                X                 Y                 Z
Electronic contribution:     -7.360106512      -2.945160577       0.001744067
Nuclear contribution   :     10.788127835       4.286815988      -0.006464632
                        -----------------------------------------
Total Dipole Moment    :      3.428021323       1.341655411      -0.004720565
                        -----------------------------------------
Magnitude (a.u.)       :      3.681221498
Magnitude (Debye)      :      9.356921442

Rotational constants in cm-1:             0.095638             0.015998             0.013740
Rotational constants in MHz :          2867.147855           479.611464           411.923747

                             ****ORCA TERMINATED NORMALLY****
TOTAL RUN TIME: 0 days 0 hours 46 minutes 40 seconds 63 msec
