                         Program Version 6.0.0  -   RELEASE  -
|  1> !PBE0 aug-cc-pVTZ d3 TightSCF SlowConv RIJCOSX defgrid2
|  2>
|  3> %pal
|  4> nprocs 4
|  5> end
|  6>
|  7> %scf
|  8> MaxIter 1500
|  9> end
| 10>
| 11> %maxcore 3000
| 12>
| 13> !CPCM
| 14> %cpcm smd true
| 15> SMDsolvent "MeCN"
| 16> surfacetype gepol_ses
| 17> rsolv 2.19
| 18> end
| 19>
| 20> * xyz 0 1
| 21> C          -0.89224376281729     -0.45495718467486     -0.01145470130558
| 22> C          -2.16594085102826      0.11833701228886      0.04668156393021
| 23> C          -2.30980722961896      1.50552350730743      0.05266514185606
| 24> C          -1.18730292615774      2.32642588045932     -0.00578599682476
| 25> C           0.07848662017989      1.74980637635100     -0.06895843233769
| 26> C           0.26274712675783      0.36232202146058     -0.06567493940899
| 27> C           1.58397696911678     -0.26992063342449     -0.12469546497205
| 28> C           2.76363236463117      0.32107143728729      0.12304590513021
| 29> C           4.08799267811931     -0.36052851109315      0.03291116341555
| 30> H           3.98056842183658     -1.41840521263657     -0.26057190910370
| 31> H           4.74505082715594      0.13479691399593     -0.70730718173092
| 32> H           4.62530006868567     -0.32442135861975      0.99958986880157
| 33> H           2.78503020251791      1.37712737104795      0.42569396767337
| 34> H           1.57849606749139     -1.33419620856152     -0.38398649131753
| 35> H           0.95757732762518      2.39636581691597     -0.14038478463746
| 36> H          -1.29519718094620      3.41448711016187     -0.01311105785373
| 37> H          -3.31277371923385      1.94023584815831      0.09753461625361
| 38> H          -3.05632729029775     -0.51114095186127      0.09086976233295
| 39> O          -0.67674575407500     -1.78893966045310     -0.01378813421896
| 40> C          -1.76950811946695     -2.65856738104043      0.02444914878564
| 41> H          -2.43311749477465     -2.52415123007072     -0.85159816615208
| 42> H          -2.36466392584911     -2.52857531091088      0.94882566481095
| 43> H          -1.35670891985190     -3.67848395208777      0.00674595687332
| 44> *
| 45>
| 46>                          ****END OF INPUT****

CARTESIAN COORDINATES (ANGSTROEM)
---------------------------------
  C     -0.892244   -0.454957   -0.011455
  C     -2.165941    0.118337    0.046682
  C     -2.309807    1.505524    0.052665
  C     -1.187303    2.326426   -0.005786
  C      0.078487    1.749806   -0.068958
  C      0.262747    0.362322   -0.065675
  C      1.583977   -0.269921   -0.124695
  C      2.763632    0.321071    0.123046
  C      4.087993   -0.360529    0.032911
  H      3.980568   -1.418405   -0.260572
  H      4.745051    0.134797   -0.707307
  H      4.625300   -0.324421    0.999590
  H      2.785030    1.377127    0.425694
  H      1.578496   -1.334196   -0.383986
  H      0.957577    2.396366   -0.140385
  H     -1.295197    3.414487   -0.013111
  H     -3.312774    1.940236    0.097535
  H     -3.056327   -0.511141    0.090870
  O     -0.676746   -1.788940   -0.013788
  C     -1.769508   -2.658567    0.024449
  H     -2.433117   -2.524151   -0.851598
  H     -2.364664   -2.528575    0.948826
  H     -1.356709   -3.678484    0.006746

 Total Charge           Charge          ....    0
 Multiplicity           Mult            ....    1
 Number of Electrons    NEL             ....   80
 Basis Dimension        Dim             ....  782

ORBITAL ENERGIES
----------------

  NO   OCC          E(Eh)            E(eV)
   0   2.0000     -19.244574      -523.6715
   1   2.0000     -10.291523      -280.0466
   2   2.0000     -10.266310      -279.3605
   3   2.0000     -10.239055      -278.6189
   4   2.0000     -10.230788      -278.3939
   5   2.0000     -10.230078      -278.3746
   6   2.0000     -10.229766      -278.3661
   7   2.0000     -10.227328      -278.2997
   8   2.0000     -10.223689      -278.2007
   9   2.0000     -10.223538      -278.1966
  10   2.0000     -10.215511      -277.9782
  11   2.0000      -1.107649       -30.1407
  12   2.0000      -0.885102       -24.0849
  13   2.0000      -0.824149       -22.4262
  14   2.0000      -0.781373       -21.2622
  15   2.0000      -0.769284       -20.9333
  16   2.0000      -0.717328       -19.5195
  17   2.0000      -0.694215       -18.8906
  18   2.0000      -0.631817       -17.1926
  19   2.0000      -0.604548       -16.4506
  20   2.0000      -0.563760       -15.3407
  21   2.0000      -0.546653       -14.8752
  22   2.0000      -0.506592       -13.7851
  23   2.0000      -0.494125       -13.4458
  24   2.0000      -0.484561       -13.1856
  25   2.0000      -0.459690       -12.5088
  26   2.0000      -0.447600       -12.1798
  27   2.0000      -0.432402       -11.7663
  28   2.0000      -0.420245       -11.4354
  29   2.0000      -0.416556       -11.3351
  30   2.0000      -0.396903       -10.8003
  31   2.0000      -0.393129       -10.6976
  32   2.0000      -0.373905       -10.1745
  33   2.0000      -0.370115       -10.0713
  34   2.0000      -0.349036        -9.4977
  35   2.0000      -0.336893        -9.1673
  36   2.0000      -0.330879        -9.0037
  37   2.0000      -0.307632        -8.3711
  38   2.0000      -0.251791        -6.8516
  39   2.0000      -0.222718        -6.0605
  40   0.0000      -0.036292        -0.9875
  41   0.0000       0.001576         0.0429
  42   0.0000       0.003346         0.0910
  43   0.0000       0.011182         0.3043
  44   0.0000       0.013041         0.3549

MULLIKEN ATOMIC CHARGES
-----------------------
   0 C :    0.539594
   1 C :   -0.789241
   2 C :   -0.409202
   3 C :   -0.890973
   4 C :   -0.713851
   5 C :    1.075829
   6 C :    0.076251
   7 C :   -0.558012
   8 C :   -0.756998
   9 H :    0.272102
  10 H :    0.244214
  11 H :    0.219803
  12 H :    0.295666
  13 H :    0.207790
  14 H :    0.049397
  15 H :    0.705885
  16 H :    0.461039
  17 H :    0.654002
  18 O :   -0.755194
  19 C :   -0.824751
  20 H :    0.342729
  21 H :    0.346115
  22 H :    0.207806
Sum of atomic charges:    0.0000000

LOEWDIN ATOMIC CHARGES
----------------------
   0 C :   -0.381246
   1 C :    0.196221
   2 C :    0.175389
   3 C :    0.178429
   4 C :    0.185949
   5 C :   -0.140277
   6 C :    0.189923
   7 C :    0.193427
   8 C :    0.543797
   9 H :   -0.172211
  10 H :   -0.162442
  11 H :   -0.162774
  12 H :   -0.177686
  13 H :   -0.204128
  14 H :   -0.177097
  15 H :   -0.173453
  16 H :   -0.167691
  17 H :   -0.190422
  18 O :    0.606178
  19 C :    0.319855
  20 H :   -0.157132
  21 H :   -0.157700
  22 H :   -0.164909

  Mayer bond orders larger than 0.100000
B(  0-C ,  1-C ) :   1.3286 B(  0-C ,  2-C ) :  -0.4536 B(  0-C ,  3-C ) :   0.2355
B(  0-C ,  4-C ) :  -0.9933 B(  0-C ,  5-C ) :   0.7620 B(  0-C ,  7-C ) :   0.1672
B(  0-C , 16-H ) :   0.2307 B(  0-C , 17-H ) :  -0.1219 B(  0-C , 18-O ) :   0.6004
B(  1-C ,  2-C ) :   1.0470 B(  1-C ,  3-C ) :   0.2697 B(  1-C ,  5-C ) :   0.2085
B(  1-C , 14-H ) :  -0.1178 B(  2-C ,  3-C ) :   1.2858 B(  2-C ,  4-C ) :  -0.2973
B(  2-C ,  6-C ) :   0.1309 B(  2-C , 15-H ) :   0.1333 B(  2-C , 16-H ) :   0.7134
B(  2-C , 17-H ) :   0.2325 B(  3-C ,  4-C ) :   1.1980 B(  3-C ,  5-C ) :   0.1866
B(  3-C , 17-H ) :  -0.1392 B(  4-C ,  5-C ) :   0.9709 B(  4-C ,  6-C ) :   0.1733
B(  4-C , 14-H ) :   1.5379 B(  4-C , 17-H ) :   0.1939 B(  5-C ,  6-C ) :   0.2043
B(  5-C , 16-H ) :  -0.1652 B(  5-C , 17-H ) :   0.1258 B(  6-C ,  7-C ) :   1.0190
B(  6-C , 13-H ) :   1.0242 B(  7-C ,  8-C ) :   0.8912 B(  7-C , 12-H ) :   1.0171
B(  8-C ,  9-H ) :   0.9193 B(  8-C , 10-H ) :   0.9563 B(  8-C , 11-H ) :   0.9797
B( 18-O , 19-C ) :   1.1836 B( 19-C , 20-H ) :   0.8468 B( 19-C , 21-H ) :   0.8375
B( 19-C , 22-H ) :   1.0225

Dispersion correction           -0.020285902
FINAL SINGLE POINT ENERGY      -463.128573942351

DIPOLE MOMENT
-------------

Method             : SCF
Type of density    : Electron Density
Multiplicity       :   1
Irrep              :   0
Energy             :  -463.1082880399482633 Eh
Relativity type    :
Basis              : AO
                                X                 Y                 Z
Electronic contribution:     -4.930125288       2.481448856      -0.158890037
Nuclear contribution   :      4.581656227      -2.893948868       0.196564691
                        -----------------------------------------
Total Dipole Moment    :     -0.348469061      -0.412500012       0.037674654
                        -----------------------------------------
Magnitude (a.u.)       :      0.541300587
Magnitude (Debye)      :      1.375876750

Rotational constants in cm-1:             0.050912             0.026902             0.017755
Rotational constants in MHz :          1526.296449           806.510912           532.292368

                             ****ORCA TERMINATED NORMALLY****
TOTAL RUN TIME: 0 days 0 hours 7 minutes 50 seconds 666 msec
