                         Program Version 6.0.0  -   RELEASE  -
|  1> !PBE0 opt aug-cc-pVTZ d3 TightSCF SlowConv RIJCOSX defgrid2
|  2>
|  3> %pal
|  4> nprocs 8
|  5> end
|  6>
|  7> %scf
|  8> MaxIter 1500
|  9> end
| 10>
| 11> %maxcore 3500
| 12>
| 13> !CPCM
| 14> %cpcm smd true
| 15> SMDsolvent "MeCN"
| 16> surfacetype gepol_ses
| 17> rsolv 2.19
| 18> end
| 19>
| 20> * xyz 1 2
| 21>   C           0.87934177719241     -1.21067540660195     -0.00127873260104
| 22>   C           1.22966791062708      0.17589003644793     -0.00125005722435
| 23>   C           0.19352686925839      1.14394656984736     -0.00149111275385
| 24>   C          -1.13231520397495      0.78669329491317     -0.00080306214070
| 25>   C          -1.46510504021522     -0.60862399997749     -0.00045500870784
| 26>   C          -0.43665639825098     -1.57759018274227     -0.00099349821475
| 27>   H          -0.70917370093293     -2.62489490442543     -0.00073797390594
| 28>   C          -2.88479791521646     -1.03557146730207      0.00080899159998
| 29>   H          -2.97980028341228     -2.11915960591924     -0.00182011474649
| 30>   H          -3.40673479059727     -0.62649482246360     -0.87115912381210
| 31>   H          -3.40296145288668     -0.63162433998259      0.87752191630673
| 32>   C          -2.21247122678077      1.81955994873864     -0.00029432696288
| 33>   H          -2.85324170622999      1.71349474221483      0.87950825273153
| 34>   H          -2.85540680542070      1.71180541522823     -0.87828832533143
| 35>   H          -1.78822029274995      2.82234871748346     -0.00184938620887
| 36>   H           0.47021734271422      2.19118748703079     -0.00206712775511
| 37>   C           2.57817781960178      0.62528629337631      0.00008691264437
| 38>   C           3.67640956189093     -0.18720388000109      0.00158255559163
| 39>   H           3.60637790042259     -1.26715194135535      0.00094270566920
| 40>   H           4.66908776941111      0.24379950163999      0.00343851393053
| 41>   H           2.73036007583250      1.69884477458196     -0.00006108912333
| 42>   H           1.65095458971720     -1.96729503073156     -0.00180740898531
| 43> *
| 44>
| 45>                          ****END OF INPUT****
 Total Charge           Charge          ....    1
 Multiplicity           Mult            ....    2
 Number of Electrons    NEL             ....   71
Dispersion correction           -0.020355002
FINAL SINGLE POINT ENERGY      -387.755767523987
Dispersion correction             ... done (  0.1 sec)
Dispersion correction           -0.020406291
FINAL SINGLE POINT ENERGY      -387.755944814835
Dispersion correction             ... done (  0.0 sec)
Dispersion correction           -0.020413480
FINAL SINGLE POINT ENERGY      -387.755949363501
Dispersion correction             ... done (  0.0 sec)
                    ***********************HURRAY********************

CARTESIAN COORDINATES (ANGSTROEM)
---------------------------------
  C      0.875458   -1.207517   -0.000755
  C      1.224929    0.174708   -0.000911
  C      0.191379    1.140069   -0.001226
  C     -1.129880    0.784663   -0.000770
  C     -1.461302   -0.606702   -0.000470
  C     -0.435876   -1.573202   -0.000674
  H     -0.707687   -2.620872   -0.000154
  C     -2.873661   -1.031010    0.000478
  H     -2.971939   -2.114004   -0.002880
  H     -3.395855   -0.619993   -0.869983
  H     -3.391765   -0.626457    0.876547
  C     -2.204941    1.812351   -0.000357
  H     -2.846493    1.706924    0.878472
  H     -2.848494    1.705328   -0.877499
  H     -1.782996    2.815804   -0.001814
  H      0.468394    2.187463   -0.001893
  C      2.568610    0.623066    0.000080
  C      3.663225   -0.186168    0.001245
  H      3.594139   -1.266255    0.000716
  H      4.655329    0.246234    0.002798
  H      2.720213    1.697053   -0.000234
  H      1.646452   -1.964913   -0.001183

 Multiplicity           Mult            ....    2
 Number of Electrons    NEL             ....   71
 Basis Dimension        Dim             ....  736

ORBITAL ENERGIES
----------------
                 SPIN UP ORBITALS
  NO   OCC          E(Eh)            E(eV)
   0   1.0000     -10.300402      -280.2882
   1   1.0000     -10.295585      -280.1571
   2   1.0000     -10.280884      -279.7571
   3   1.0000     -10.276350      -279.6337
   4   1.0000     -10.275980      -279.6236
   5   1.0000     -10.273445      -279.5547
   6   1.0000     -10.261862      -279.2395
   7   1.0000     -10.258130      -279.1379
   8   1.0000     -10.232430      -278.4386
   9   1.0000     -10.226983      -278.2904
  10   1.0000      -0.939548       -25.5664
  11   1.0000      -0.876990       -23.8641
  12   1.0000      -0.828974       -22.5575
  13   1.0000      -0.813514       -22.1369
  14   1.0000      -0.752949       -20.4888
  15   1.0000      -0.722409       -19.6577
  16   1.0000      -0.662658       -18.0319
  17   1.0000      -0.651809       -17.7366
  18   1.0000      -0.594413       -16.1748
  19   1.0000      -0.552942       -15.0463
  20   1.0000      -0.534775       -14.5520
  21   1.0000      -0.498274       -13.5587
  22   1.0000      -0.477433       -12.9916
  23   1.0000      -0.474465       -12.9108
  24   1.0000      -0.462884       -12.5957
  25   1.0000      -0.455685       -12.3998
  26   1.0000      -0.427132       -11.6228
  27   1.0000      -0.421227       -11.4622
  28   1.0000      -0.420123       -11.4321
  29   1.0000      -0.415093       -11.2953
  30   1.0000      -0.405067       -11.0224
  31   1.0000      -0.382614       -10.4115
  32   1.0000      -0.372934       -10.1481
  33   1.0000      -0.352383        -9.5888
  34   1.0000      -0.299245        -8.1429
  35   1.0000      -0.280274        -7.6267
  36   0.0000      -0.092729        -2.5233
  37   0.0000      -0.034812        -0.9473
  38   0.0000      -0.001297        -0.0353
  39   0.0000       0.008142         0.2216
  40   0.0000       0.008180         0.2226

                 SPIN DOWN ORBITALS
  NO   OCC          E(Eh)            E(eV)
   0   1.0000     -10.295481      -280.1543
   1   1.0000     -10.292201      -280.0650
   2   1.0000     -10.277130      -279.6549
   3   1.0000     -10.275995      -279.6240
   4   1.0000     -10.274036      -279.5707
   5   1.0000     -10.271446      -279.5003
   6   1.0000     -10.261862      -279.2395
   7   1.0000     -10.258964      -279.1606
   8   1.0000     -10.232561      -278.4421
   9   1.0000     -10.226994      -278.2907
  10   1.0000      -0.932465       -25.3737
  11   1.0000      -0.868474       -23.6324
  12   1.0000      -0.827559       -22.5190
  13   1.0000      -0.802897       -21.8479
  14   1.0000      -0.748525       -20.3684
  15   1.0000      -0.716430       -19.4951
  16   1.0000      -0.658031       -17.9059
  17   1.0000      -0.647486       -17.6190
  18   1.0000      -0.589909       -16.0522
  19   1.0000      -0.550970       -14.9926
  20   1.0000      -0.531891       -14.4735
  21   1.0000      -0.495194       -13.4749
  22   1.0000      -0.471796       -12.8382
  23   1.0000      -0.466050       -12.6819
  24   1.0000      -0.460328       -12.5262
  25   1.0000      -0.454680       -12.3725
  26   1.0000      -0.422165       -11.4877
  27   1.0000      -0.417930       -11.3724
  28   1.0000      -0.414686       -11.2842
  29   1.0000      -0.404477       -11.0064
  30   1.0000      -0.403308       -10.9746
  31   1.0000      -0.381678       -10.3860
  32   1.0000      -0.370695       -10.0871
  33   1.0000      -0.325120        -8.8470
  34   1.0000      -0.294364        -8.0100
  35   0.0000      -0.189988        -5.1698
  36   0.0000      -0.062122        -1.6904
  37   0.0000      -0.024409        -0.6642
  38   0.0000      -0.000607        -0.0165
  39   0.0000       0.009320         0.2536

MULLIKEN ATOMIC CHARGES AND SPIN POPULATIONS
--------------------------------------------
   0 C :   -0.384984    0.113260
   1 C :    1.651668    0.215298
   2 C :   -0.911650   -0.004729
   3 C :    0.337417    0.013240
   4 C :    0.564065    0.346467
   5 C :   -1.195475   -0.071132
   6 H :    0.337364    0.006630
   7 C :   -0.704238   -0.025826
   8 H :    0.149492   -0.008083
   9 H :    0.285265    0.023636
  10 H :    0.285766    0.023904
  11 C :   -0.724434   -0.003962
  12 H :    0.284894    0.002677
  13 H :    0.284783    0.002660
  14 H :    0.141227   -0.000033
  15 H :   -0.025949    0.005534
  16 C :   -0.018166    0.006236
  17 C :   -0.906154    0.367829
  18 H :    0.382516    0.001153
  19 H :    0.291357   -0.013806
  20 H :    0.351585    0.014970
  21 H :    0.523651   -0.015925
Sum of atomic charges         :    1.0000000

LOEWDIN ATOMIC CHARGES AND SPIN POPULATIONS
-------------------------------------------
   0 C :    0.282293    0.086294
   1 C :   -0.080753    0.123068
   2 C :    0.283415    0.036397
   3 C :   -0.050847    0.055612
   4 C :   -0.033929    0.158609
   5 C :    0.288950    0.041044
   6 H :   -0.148079   -0.003385
   7 C :    0.627643    0.052574
   8 H :   -0.151773    0.001471
   9 H :   -0.136909    0.012214
  10 H :   -0.136351    0.012332
  11 C :    0.611991    0.005427
  12 H :   -0.145526    0.001737
  13 H :   -0.145797    0.001734
  14 H :   -0.156043   -0.000011
  15 H :   -0.145320    0.001396
  16 C :    0.258047    0.078954
  17 C :    0.651213    0.225531
  18 H :   -0.186208    0.046356
  19 H :   -0.165987    0.051827
  20 H :   -0.157244   -0.001644
  21 H :   -0.162787    0.012464

  Mayer bond orders larger than 0.100000
B(  0-C ,  1-C ) :   0.4642 B(  0-C ,  2-C ) :  -0.7683 B(  0-C ,  3-C ) :  -0.1999
B(  0-C ,  5-C ) :   1.1758 B(  0-C , 11-C ) :   0.1009 B(  0-C , 15-H ) :   0.1085
B(  0-C , 16-C ) :   0.2184 B(  0-C , 21-H ) :   0.9287 B(  1-C ,  2-C ) :  -0.1450
B(  1-C ,  3-C ) :   0.2773 B(  1-C ,  4-C ) :  -0.4861 B(  1-C ,  7-C ) :   0.1166
B(  1-C , 15-H ) :  -0.1587 B(  1-C , 16-C ) :   0.3448 B(  1-C , 17-C ) :  -0.2107
B(  1-C , 21-H ) :   0.1609 B(  2-C ,  3-C ) :   0.9284 B(  2-C ,  4-C ) :  -0.2808
B(  2-C ,  5-C ) :   0.1983 B(  2-C ,  6-H ) :   0.1123 B(  2-C , 11-C ) :  -0.3380
B(  2-C , 15-H ) :   1.8559 B(  2-C , 20-H ) :  -0.1407 B(  3-C ,  4-C ) :   1.3695
B(  3-C ,  5-C ) :   0.2335 B(  3-C ,  7-C ) :   0.1602 B(  3-C , 11-C ) :   0.2735
B(  3-C , 16-C ) :   0.1102 B(  3-C , 20-H ) :   0.1660 B(  3-C , 21-H ) :  -0.2071
B(  4-C ,  5-C ) :   0.8038 B(  4-C ,  6-H ) :   0.2052 B(  4-C ,  7-C ) :   0.5227
B(  4-C , 11-C ) :   0.3713 B(  4-C , 16-C ) :   0.2036 B(  5-C ,  6-H ) :   0.7048
B(  5-C ,  7-C ) :  -0.2441 B(  5-C , 21-H ) :  -0.1758 B(  7-C ,  8-H ) :   1.0261
B(  7-C ,  9-H ) :   0.9209 B(  7-C , 10-H ) :   0.9195 B( 11-C , 12-H ) :   0.9307
B( 11-C , 13-H ) :   0.9307 B( 11-C , 14-H ) :   1.0233 B( 15-H , 16-C ) :  -0.2045
B( 15-H , 21-H ) :   0.1060 B( 16-C , 17-C ) :   1.0271 B( 16-C , 20-H ) :   0.7916
B( 17-C , 18-H ) :   0.9183 B( 17-C , 19-H ) :   0.8931 B( 17-C , 20-H ) :  -0.1792

Dispersion correction           -0.020412825
FINAL SINGLE POINT ENERGY      -387.755951355968

DIPOLE MOMENT
-------------

Method             : SCF
Type of density    : Electron Density
Multiplicity       :   2
Irrep              :   0
Energy             :  -387.7355385312202429 Eh
Relativity type    :
Basis              : AO
                                X                 Y                 Z
Electronic contribution:      5.422659363      -1.215928656      -0.004570193
Nuclear contribution   :     -4.570442277       1.048379883       0.005901372
                        -----------------------------------------
Total Dipole Moment    :      0.852217086      -0.167548773       0.001331180
                        -----------------------------------------
Magnitude (a.u.)       :      0.868532282
Magnitude (Debye)      :      2.207633616

Rotational constants in cm-1:             0.096468             0.029599             0.022839
Rotational constants in MHz :          2892.026528           887.367953           684.710146

                             ****ORCA TERMINATED NORMALLY****
TOTAL RUN TIME: 0 days 0 hours 26 minutes 19 seconds 35 msec
