                         Program Version 6.0.0  -   RELEASE  -
|  1> !PBE0 freq aug-cc-pVTZ d3 TightSCF SlowConv RIJCOSX defgrid2
|  2>
|  3> %pal
|  4> nprocs 12
|  5> end
|  6>
|  7> %scf
|  8> MaxIter 1500
|  9> end
| 10>
| 11> %maxcore 5000
| 12>
| 13> !CPCM
| 14> %cpcm smd true
| 15> SMDsolvent "MeCN"
| 16> surfacetype gepol_ses
| 17> rsolv 2.19
| 18> end
| 19>
| 20> * xyz -1 2
| 21> C          -0.02406783026398      1.19744885514527     -0.00021718921874
| 22> C           1.35506344904412      1.21933669827066      0.00020975965127
| 23> C           2.05349951685678      0.01726433260330      0.00003616929845
| 24> C           1.39594099495639     -1.20657553987653     -0.00102190853887
| 25> C           0.01782703374899     -1.23039844642538     -0.00127891473830
| 26> C          -0.75834068480773     -0.02862346995908     -0.00025240135146
| 27> C          -2.18072570042803     -0.08909726818837      0.00180808603802
| 28> O          -2.81784458899391     -1.19006871311193      0.00546003190121
| 29> C          -2.96174126454980      1.20590173892025     -0.00078656092594
| 30> H          -2.74978120845850      1.82655716958764      0.87812693299769
| 31> H          -2.74442694272116      1.82643858481581     -0.87846319822531
| 32> H          -4.02732970264236      0.97463414605778     -0.00387735583778
| 33> H          -0.50826154970076     -2.17679554017425     -0.00196651798050
| 34> H           1.97117077433741     -2.12606135690610     -0.00167046581223
| 35> F           3.41985667114451      0.04123394659071      0.00102826975670
| 36> H           1.89697278638897      2.15841908486926      0.00083326488798
| 37> H          -0.55341995391094      2.14251557778096      0.00032289809779
| 38> *
| 39>
| 40>                          ****END OF INPUT****

CARTESIAN COORDINATES (ANGSTROEM)
---------------------------------
  C     -0.024068    1.197449   -0.000217
  C      1.355063    1.219337    0.000210
  C      2.053500    0.017264    0.000036
  C      1.395941   -1.206576   -0.001022
  C      0.017827   -1.230398   -0.001279
  C     -0.758341   -0.028623   -0.000252
  C     -2.180726   -0.089097    0.001808
  O     -2.817845   -1.190069    0.005460
  C     -2.961741    1.205902   -0.000787
  H     -2.749781    1.826557    0.878127
  H     -2.744427    1.826439   -0.878463
  H     -4.027330    0.974634   -0.003877
  H     -0.508262   -2.176796   -0.001967
  H      1.971171   -2.126061   -0.001670
  F      3.419857    0.041234    0.001028
  H      1.896973    2.158419    0.000833
  H     -0.553420    2.142516    0.000323

 Total Charge           Charge          ....   -1
 Multiplicity           Mult            ....    2
 Number of Electrons    NEL             ....   73
 Basis Dimension        Dim             ....  621

ORBITAL ENERGIES
----------------
                 SPIN UP ORBITALS
  NO   OCC          E(Eh)            E(eV)
   0   1.0000     -24.769096      -674.0014
   1   1.0000     -19.125033      -520.4186
   2   1.0000     -10.276453      -279.6365
   3   1.0000     -10.235942      -278.5341
   4   1.0000     -10.211667      -277.8736
   5   1.0000     -10.211467      -277.8681
   6   1.0000     -10.208371      -277.7839
   7   1.0000     -10.203727      -277.6575
   8   1.0000     -10.195965      -277.4463
   9   1.0000     -10.189890      -277.2810
  10   1.0000      -1.238588       -33.7037
  11   1.0000      -0.984644       -26.7935
  12   1.0000      -0.863701       -23.5025
  13   1.0000      -0.767347       -20.8806
  14   1.0000      -0.757129       -20.6025
  15   1.0000      -0.715260       -19.4632
  16   1.0000      -0.632122       -17.2009
  17   1.0000      -0.613509       -16.6944
  18   1.0000      -0.544537       -14.8176
  19   1.0000      -0.540864       -14.7177
  20   1.0000      -0.484784       -13.1917
  21   1.0000      -0.474272       -12.9056
  22   1.0000      -0.456241       -12.4150
  23   1.0000      -0.437417       -11.9027
  24   1.0000      -0.421062       -11.4577
  25   1.0000      -0.419930       -11.4269
  26   1.0000      -0.408897       -11.1266
  27   1.0000      -0.390686       -10.6311
  28   1.0000      -0.372261       -10.1297
  29   1.0000      -0.365248        -9.9389
  30   1.0000      -0.353920        -9.6306
  31   1.0000      -0.326851        -8.8941
  32   1.0000      -0.323158        -8.7936
  33   1.0000      -0.263631        -7.1738
  34   1.0000      -0.244899        -6.6640
  35   1.0000      -0.218730        -5.9520
  36   1.0000      -0.101211        -2.7541
  37   0.0000       0.003108         0.0846
  38   0.0000       0.003130         0.0852
  39   0.0000       0.016168         0.4399
  40   0.0000       0.019039         0.5181
  41   0.0000       0.029867         0.8127

                 SPIN DOWN ORBITALS
  NO   OCC          E(Eh)            E(eV)
   0   1.0000     -24.768209      -673.9772
   1   1.0000     -19.119009      -520.2547
   2   1.0000     -10.271508      -279.5019
   3   1.0000     -10.231388      -278.4102
   4   1.0000     -10.213302      -277.9181
   5   1.0000     -10.212953      -277.9086
   6   1.0000     -10.205828      -277.7147
   7   1.0000     -10.200775      -277.5772
   8   1.0000     -10.195220      -277.4260
   9   1.0000     -10.190299      -277.2921
  10   1.0000      -1.236308       -33.6416
  11   1.0000      -0.972722       -26.4691
  12   1.0000      -0.859750       -23.3950
  13   1.0000      -0.760925       -20.7058
  14   1.0000      -0.753133       -20.4938
  15   1.0000      -0.712215       -19.3803
  16   1.0000      -0.623778       -16.9739
  17   1.0000      -0.611014       -16.6265
  18   1.0000      -0.541753       -14.7419
  19   1.0000      -0.535802       -14.5799
  20   1.0000      -0.483384       -13.1535
  21   1.0000      -0.464747       -12.6464
  22   1.0000      -0.451935       -12.2978
  23   1.0000      -0.435874       -11.8607
  24   1.0000      -0.419406       -11.4126
  25   1.0000      -0.409142       -11.1333
  26   1.0000      -0.406608       -11.0644
  27   1.0000      -0.389068       -10.5871
  28   1.0000      -0.368793       -10.0354
  29   1.0000      -0.355663        -9.6781
  30   1.0000      -0.351252        -9.5581
  31   1.0000      -0.321648        -8.7525
  32   1.0000      -0.299755        -8.1567
  33   1.0000      -0.253936        -6.9099
  34   1.0000      -0.221037        -6.0147
  35   1.0000      -0.213518        -5.8101
  36   0.0000      -0.013253        -0.3606
  37   0.0000       0.005361         0.1459
  38   0.0000       0.008590         0.2337
  39   0.0000       0.017241         0.4692
  40   0.0000       0.021258         0.5785

MULLIKEN ATOMIC CHARGES AND SPIN POPULATIONS
--------------------------------------------
   0 C :   -0.581815    0.206578
   1 C :   -0.942334   -0.089489
   2 C :    0.502679    0.259755
   3 C :   -0.808056   -0.090314
   4 C :   -0.947315    0.225583
   5 C :    1.363755    0.058380
   6 C :    0.450956    0.222774
   7 O :   -1.075559    0.230782
   8 C :   -0.707167   -0.017861
   9 H :    0.267340    0.010863
  10 H :    0.268027    0.010740
  11 H :    0.174954    0.000602
  12 H :    0.289881   -0.024013
  13 H :    0.526117    0.000886
  14 F :   -0.526662    0.012568
  15 H :    0.509091    0.002672
  16 H :    0.236110   -0.020508
Sum of atomic charges         :   -1.0000000

LOEWDIN ATOMIC CHARGES AND SPIN POPULATIONS
-------------------------------------------
   0 C :    0.147775    0.089018
   1 C :    0.136735    0.022624
   2 C :   -0.578619    0.127128
   3 C :    0.130719    0.022903
   4 C :    0.137655    0.097735
   5 C :   -0.214745    0.114636
   6 C :   -0.677294    0.191084
   7 O :    0.322833    0.208035
   8 C :    0.495766    0.038354
   9 H :   -0.182345    0.009690
  10 H :   -0.182620    0.009625
  11 H :   -0.204219   -0.000629
  12 H :   -0.217946    0.024033
  13 H :   -0.190068   -0.006572
  14 F :    0.473445    0.037322
  15 H :   -0.189668   -0.005665
  16 H :   -0.207403    0.020679

  Mayer bond orders larger than 0.100000
B(  0-C ,  1-C ) :   1.1706 B(  0-C ,  2-C ) :  -0.2170 B(  0-C ,  3-C ) :  -0.1143
B(  0-C ,  4-C ) :  -0.3307 B(  0-C ,  5-C ) :   0.3562 B(  0-C ,  6-C ) :   0.1614
B(  0-C , 16-H ) :   1.0984 B(  1-C ,  2-C ) :   1.4060 B(  1-C ,  3-C ) :   0.2937
B(  1-C ,  5-C ) :   0.1213 B(  1-C , 14-F ) :   0.1925 B(  1-C , 15-H ) :   0.4205
B(  2-C ,  3-C ) :   1.4410 B(  2-C ,  4-C ) :  -0.2767 B(  2-C , 14-F ) :   0.2300
B(  3-C ,  4-C ) :   1.4859 B(  3-C , 13-H ) :   0.4002 B(  3-C , 14-F ) :   0.1888
B(  3-C , 16-H ) :  -0.1205 B(  4-C ,  5-C ) :   0.2113 B(  4-C ,  6-C ) :   0.3052
B(  4-C , 12-H ) :   0.8836 B(  4-C , 16-H ) :   0.1209 B(  5-C ,  6-C ) :   0.5377
B(  5-C ,  7-O ) :   0.1260 B(  6-C ,  7-O ) :   0.6773 B(  6-C ,  8-C ) :   0.9459
B(  7-O , 12-H ) :   0.1451 B(  8-C ,  9-H ) :   0.9311 B(  8-C , 10-H ) :   0.9308
B(  8-C , 11-H ) :   0.9708 B( 12-H , 16-H ) :   0.1414 B( 13-H , 14-F ) :   0.1236
B( 14-F , 15-H ) :   0.1084

Dispersion correction           -0.015336492
FINAL SINGLE POINT ENERGY      -483.872918364409

DIPOLE MOMENT
-------------

Method             : SCF
Type of density    : Electron Density
Multiplicity       :   2
Irrep              :   0
Energy             :  -483.8575818727777005 Eh
Relativity type    :
Basis              : AO
                                X                 Y                 Z
Electronic contribution:     11.318492803      -2.776154166       0.005994333
Nuclear contribution   :     -9.505147447       4.306802706      -0.010513310
                        -----------------------------------------
Total Dipole Moment    :      1.813345355       1.530648540      -0.004518978
                        -----------------------------------------
Magnitude (a.u.)       :      2.372999526
Magnitude (Debye)      :      6.031685450

VIBRATIONAL FREQUENCIES
-----------------------

Scaling factor for frequencies =  1.000000000  (already applied!)

     0:       0.00 cm**-1
     1:       0.00 cm**-1
     2:       0.00 cm**-1
     3:       0.00 cm**-1
     4:       0.00 cm**-1
     5:       0.00 cm**-1
     6:      92.71 cm**-1
     7:      97.42 cm**-1
     8:     121.89 cm**-1
     9:     178.56 cm**-1
    10:     259.95 cm**-1
    11:     331.44 cm**-1
    12:     360.68 cm**-1
    13:     378.01 cm**-1
    14:     445.44 cm**-1
    15:     463.99 cm**-1
    16:     539.74 cm**-1
    17:     546.39 cm**-1
    18:     629.88 cm**-1
    19:     686.16 cm**-1
    20:     686.43 cm**-1
    21:     772.28 cm**-1
    22:     786.73 cm**-1
    23:     802.39 cm**-1
    24:     934.97 cm**-1
    25:     948.06 cm**-1
    26:     953.26 cm**-1
    27:     991.22 cm**-1
    28:     999.87 cm**-1
    29:    1068.38 cm**-1
    30:    1092.08 cm**-1
    31:    1144.17 cm**-1
    32:    1214.69 cm**-1
    33:    1270.74 cm**-1
    34:    1320.49 cm**-1
    35:    1346.65 cm**-1
    36:    1361.07 cm**-1
    37:    1419.74 cm**-1
    38:    1437.04 cm**-1
    39:    1449.02 cm**-1
    40:    1496.24 cm**-1
    41:    1518.40 cm**-1
    42:    1556.93 cm**-1
    43:    1638.19 cm**-1
    44:    3000.96 cm**-1
    45:    3047.14 cm**-1
    46:    3122.57 cm**-1
    47:    3181.33 cm**-1
    48:    3181.58 cm**-1
    49:    3199.47 cm**-1
    50:    3202.73 cm**-1

IR SPECTRUM
-----------

 Mode   freq       eps      Int      T**2         TX        TY        TZ
       cm**-1   L/(mol*cm) km/mol    a.u.
----------------------------------------------------------------------------
  6:     92.71   0.000001    0.00  0.000002  ( 0.000203  0.000139 -0.001377)
  7:     97.42   0.000674    3.41  0.002159  (-0.000178  0.000421 -0.046463)
  8:    121.89   0.000990    5.00  0.002536  (-0.000032  0.000341 -0.050353)
  9:    178.56   0.001442    7.29  0.002520  ( 0.049036 -0.010748 -0.000304)
 10:    259.95   0.000015    0.08  0.000018  ( 0.000248  0.000100  0.004237)
 11:    331.44   0.000253    1.28  0.000238  ( 0.004844 -0.014637 -0.000383)
 12:    360.68   0.002012   10.17  0.001741  (-0.000101  0.000012  0.041721)
 13:    378.01   0.001040    5.25  0.000858  ( 0.023071  0.018053 -0.000016)
 14:    445.44   0.000185    0.94  0.000130  (-0.000004  0.000165  0.011387)
 15:    463.99   0.000376    1.90  0.000253  ( 0.014611 -0.006256  0.000034)
 16:    539.74   0.007885   39.85  0.004559  (-0.000306 -0.000110 -0.067519)
 17:    546.39   0.009914   50.10  0.005662  ( 0.067526 -0.033204  0.000250)
 18:    629.88   0.000098    0.50  0.000049  ( 0.001728  0.006759 -0.000139)
 19:    686.16   0.002757   13.93  0.001254  (-0.004029 -0.000838  0.035169)
 20:    686.43   0.017678   89.34  0.008037  (-0.087763 -0.018200 -0.001813)
 21:    772.28   0.017110   86.47  0.006914  ( 0.000392 -0.000104 -0.083148)
 22:    786.73   0.009873   49.89  0.003916  (-0.000889 -0.000272 -0.062573)
 23:    802.39   0.034809  175.91  0.013538  (-0.116293 -0.003723  0.000143)
 24:    934.97   0.000400    2.02  0.000134  (-0.000758  0.000286 -0.011527)
 25:    948.06   0.024870  125.68  0.008186  ( 0.090383 -0.004142 -0.000214)
 26:    953.26   0.000073    0.37  0.000024  (-0.004593  0.000097 -0.001659)
 27:    991.22   0.008917   45.06  0.002807  ( 0.052623 -0.006166 -0.000262)
 28:    999.87   0.000372    1.88  0.000116  ( 0.000800 -0.000044  0.010740)
 29:   1068.38   0.002010   10.16  0.000587  ( 0.019984 -0.013701 -0.000071)
 30:   1092.08   0.014437   72.96  0.004125  ( 0.028051  0.057779 -0.000011)
 31:   1144.17   0.000075    0.38  0.000020  ( 0.002955  0.003417  0.000152)
 32:   1214.69   0.041581  210.13  0.010682  ( 0.103274  0.004121  0.000119)
 33:   1270.74   0.007282   36.80  0.001788  (-0.030424 -0.029370  0.000151)
 34:   1320.49   0.003424   17.30  0.000809  ( 0.027105  0.008623 -0.000114)
 35:   1346.65   0.013486   68.15  0.003125  (-0.028797  0.047914 -0.000117)
 36:   1361.07   0.023848  120.52  0.005468  (-0.011161 -0.073098 -0.000004)
 37:   1419.74   0.013412   67.78  0.002948  (-0.033515 -0.042717  0.000156)
 38:   1437.04   0.054829  277.08  0.011907  (-0.101223 -0.040747  0.000243)
 39:   1449.02   0.002069   10.46  0.000446  (-0.000685 -0.000138 -0.021099)
 40:   1496.24   0.096174  486.02  0.020058  ( 0.136278  0.038560 -0.000256)
 41:   1518.40   0.000087    0.44  0.000018  ( 0.004232 -0.000140  0.000008)
 42:   1556.93   0.080175  405.17  0.016070  (-0.110842 -0.061512  0.000395)
 43:   1638.19   0.009389   47.45  0.001789  (-0.027074 -0.032489  0.000022)
 44:   3000.96   0.027605  139.50  0.002871  ( 0.038980 -0.036757 -0.000224)
 45:   3047.14   0.014878   75.19  0.001524  (-0.000025  0.000053  0.039034)
 46:   3122.57   0.006515   32.92  0.000651  (-0.022662 -0.011727 -0.000068)
 47:   3181.33   0.005160   26.08  0.000506  ( 0.022070 -0.004371  0.000040)
 48:   3181.58   0.000197    1.00  0.000019  (-0.000256 -0.004393 -0.000026)
 49:   3199.47   0.005327   26.92  0.000520  ( 0.002344  0.022674 -0.000015)
 50:   3202.73   0.001859    9.40  0.000181  (-0.008339  0.010565  0.000041)

--------------------------
THERMOCHEMISTRY AT 298.15K
--------------------------

Temperature         ...   298.15 K
Pressure            ...     1.00 atm
Total Mass          ...   138.14 AMU
Quasi RRHO          ...     True
Cut-Off Frequency   ...     1.00 cm^-1

Throughout the following assumptions are being made:
  (1) The electronic state is orbitally nondegenerate
      but the spin degeneracy is treated
  (2) There are no thermally accessible electronically excited states
  (3) Hindered rotations indicated by low frequency modes are not
      treated as such but are treated as vibrations and this may
      cause some error
  (4) All equations used are the standard statistical mechanics
      equations for an ideal gas
  (5) All vibrations are strictly harmonic

freq.      92.71  E(vib)   ...       0.47
freq.      97.42  E(vib)   ...       0.46
freq.     121.89  E(vib)   ...       0.44
freq.     178.56  E(vib)   ...       0.37
freq.     259.95  E(vib)   ...       0.30
freq.     331.44  E(vib)   ...       0.24
freq.     360.68  E(vib)   ...       0.22
freq.     378.01  E(vib)   ...       0.21
freq.     445.44  E(vib)   ...       0.17
freq.     463.99  E(vib)   ...       0.16
freq.     539.74  E(vib)   ...       0.12
freq.     546.39  E(vib)   ...       0.12
freq.     629.88  E(vib)   ...       0.09
freq.     686.16  E(vib)   ...       0.07
freq.     686.43  E(vib)   ...       0.07
freq.     772.28  E(vib)   ...       0.05
freq.     786.73  E(vib)   ...       0.05
freq.     802.39  E(vib)   ...       0.05
freq.     934.97  E(vib)   ...       0.03
freq.     948.06  E(vib)   ...       0.03
freq.     953.26  E(vib)   ...       0.03
freq.     991.22  E(vib)   ...       0.02
freq.     999.87  E(vib)   ...       0.02
freq.    1068.38  E(vib)   ...       0.02
freq.    1092.08  E(vib)   ...       0.02
freq.    1144.17  E(vib)   ...       0.01
freq.    1214.69  E(vib)   ...       0.01
freq.    1270.74  E(vib)   ...       0.01
freq.    1320.49  E(vib)   ...       0.01
freq.    1346.65  E(vib)   ...       0.01
freq.    1361.07  E(vib)   ...       0.01
freq.    1419.74  E(vib)   ...       0.00
freq.    1437.04  E(vib)   ...       0.00
freq.    1449.02  E(vib)   ...       0.00
freq.    1496.24  E(vib)   ...       0.00
freq.    1518.40  E(vib)   ...       0.00
freq.    1556.93  E(vib)   ...       0.00
freq.    1638.19  E(vib)   ...       0.00
freq.    3000.96  E(vib)   ...       0.00
freq.    3047.14  E(vib)   ...       0.00
freq.    3122.57  E(vib)   ...       0.00
freq.    3181.33  E(vib)   ...       0.00
freq.    3181.58  E(vib)   ...       0.00
freq.    3199.47  E(vib)   ...       0.00
freq.    3202.73  E(vib)   ...       0.00

------------
INNER ENERGY
------------

The inner energy is: U= E(el) + E(ZPE) + E(vib) + E(rot) + E(trans)
    E(el)   - is the total energy from the electronic structure calculation
              = E(kin-el) + E(nuc-el) + E(el-el) + E(nuc-nuc)
    E(ZPE)  - the the zero temperature vibrational energy from the frequency calculation
    E(vib)  - the the finite temperature correction to E(ZPE) due to population
              of excited vibrational states
    E(rot)  - is the rotational thermal energy
    E(trans)- is the translational thermal energy

Summary of contributions to the inner energy U:
Electronic energy                ...   -483.87291836 Eh
Zero point energy                ...      0.12593045 Eh      79.02 kcal/mol
Thermal vibrational correction   ...      0.00622744 Eh       3.91 kcal/mol
Thermal rotational correction    ...      0.00141627 Eh       0.89 kcal/mol
Thermal translational correction ...      0.00141627 Eh       0.89 kcal/mol
-----------------------------------------------------------------------
Total thermal energy                   -483.73792793 Eh

Summary of corrections to the electronic energy:
(perhaps to be used in another calculation)
Total thermal correction                  0.00905998 Eh       5.69 kcal/mol
Non-thermal (ZPE) correction              0.12593045 Eh      79.02 kcal/mol
-----------------------------------------------------------------------
Total correction                          0.13499043 Eh      84.71 kcal/mol

--------
ENTHALPY
--------

The enthalpy is H = U + kB*T
                kB is Boltzmann's constant
Total thermal energy              ...   -483.73792793 Eh
Thermal Enthalpy correction       ...      0.00094421 Eh       0.59 kcal/mol
-----------------------------------------------------------------------
Total Enthalpy                    ...   -483.73698372 Eh

Note: Only C1 symmetry has been detected, increase convergence thresholds
      if your molecule has a higher symmetry. Symmetry factor of 1.0 is
      used for the rotational entropy correction.

Note: Rotational entropy computed according to Herzberg
Infrared and Raman Spectra, Chapter V,1, Van Nostrand Reinhold, 1945
Point Group:  C1, Symmetry Number:   1
Rotational constants in cm-1:     0.121361     0.025699     0.021291

Vibrational entropy computed according to the QRRHO of S. Grimme
Chem.Eur.J. 2012 18 9955 using a reference frequency of 100.0 cm-1

-------
ENTROPY
-------

The entropy contributions are T*S = T*(S(el)+S(vib)+S(rot)+S(trans))
     S(el)   - electronic entropy
     S(vib)  - vibrational entropy
     S(rot)  - rotational entropy
     S(trans)- translational entropy
The entropies will be listed as multiplied by the temperature to get
units of energy

Electronic entropy                ...      0.00065446 Eh      0.41 kcal/mol
Vibrational entropy               ...      0.01050402 Eh      6.59 kcal/mol
Rotational entropy                ...      0.01405220 Eh      8.82 kcal/mol
Translational entropy             ...      0.01932885 Eh     12.13 kcal/mol
-----------------------------------------------------------------------
Final entropy term                ...      0.04453952 Eh     27.95 kcal/mol

In case the symmetry of your molecule has not been determined correctly
or in case you have a reason to use a different symmetry number we print
out the resulting rotational entropy values for sn=1,12:

 non-linear molecules -----------------------------------
|  sn= 1 | S(rot)=       0.01405220 Eh      8.82 kcal/mol|
|  sn= 2 | S(rot)=       0.01339774 Eh      8.41 kcal/mol|
|  sn= 3 | S(rot)=       0.01301491 Eh      8.17 kcal/mol|
|  sn= 4 | S(rot)=       0.01274329 Eh      8.00 kcal/mol|
|  sn= 5 | S(rot)=       0.01253260 Eh      7.86 kcal/mol|
|  sn= 6 | S(rot)=       0.01236045 Eh      7.76 kcal/mol|
|  sn= 7 | S(rot)=       0.01221491 Eh      7.66 kcal/mol|
|  sn= 8 | S(rot)=       0.01208883 Eh      7.59 kcal/mol|
|  sn= 9 | S(rot)=       0.01197762 Eh      7.52 kcal/mol|
|  sn=10 | S(rot)=       0.01187814 Eh      7.45 kcal/mol|
|  sn=11 | S(rot)=       0.01178815 Eh      7.40 kcal/mol|
|  sn=12 | S(rot)=       0.01170600 Eh      7.35 kcal/mol|
 linear molecules ---------------------------------------
|  Dinfh | S(rot)=       0.00896039 Eh      5.62 kcal/mol|

                             ****ORCA TERMINATED NORMALLY****
TOTAL RUN TIME: 0 days 0 hours 44 minutes 38 seconds 33 msec
