                         Program Version 6.0.0  -   RELEASE  -
|  1> !PBE0 opt def2-SV(p) d3 TightSCF SlowConv RIJCOSX defgrid2
|  2>
|  3> %pal
|  4> nprocs 8
|  5> end
|  6>
|  7> %scf
|  8> MaxIter 1500
|  9> end
| 10>
| 11> %maxcore 3500
| 12>
| 13> !CPCM
| 14> %cpcm smd true
| 15> SMDsolvent "MeCN"
| 16> surfacetype gepol_ses
| 17> rsolv 2.19
| 18> end
| 19>
| 20> * xyz 1 2
| 21> C           0.86770061929664     -1.42689432299132      0.00000897101558
| 22> C           2.10468085183811     -0.72689058389273     -0.00000825447661
| 23> C           2.18067581844409      0.67999913600521     -0.00001076122154
| 24> C           1.03283927538202      1.45145343690800      0.00000700381243
| 25> C          -0.22537653673213      0.77678989280940      0.00001343275561
| 26> C          -0.25105693451531     -0.64408759720608      0.00001506224490
| 27> O          -1.55281870061497     -1.07751154880539      0.00002630462179
| 28> C          -2.31401480280601     -0.00668804123383      0.00001929043081
| 29> C          -1.56234358562406      1.18487206630760      0.00001231970991
| 30> H          -1.97074260676972      2.19593761753153      0.00001018835187
| 31> H          -3.39348512015147     -0.17364143845796      0.00002005021122
| 32> H           1.07805269996545      2.54351477894486     -0.00000377489980
| 33> H           3.16218666325774      1.15998906195145     -0.00002790877216
| 34> H           3.03083245792013     -1.30967197800346     -0.00002115939682
| 35> H           0.82193140110952     -2.51820987986727      0.00000983561282
| 36> *
| 37>
| 38>                          ****END OF INPUT****
 Total Charge           Charge          ....    1
 Multiplicity           Mult            ....    2
 Number of Electrons    NEL             ....   61
Dispersion correction           -0.013688724
FINAL SINGLE POINT ENERGY      -382.747366126162
Dispersion correction             ... done (  0.1 sec)
Dispersion correction           -0.013693587
FINAL SINGLE POINT ENERGY      -382.747393198649
Dispersion correction             ... done (  0.1 sec)
Dispersion correction           -0.013694891
FINAL SINGLE POINT ENERGY      -382.747393635284
Dispersion correction             ... done (  0.1 sec)
                    ***********************HURRAY********************

CARTESIAN COORDINATES (ANGSTROEM)
---------------------------------
  C      0.869592   -1.426906   -0.000843
  C      2.102746   -0.726918    0.000679
  C      2.177158    0.679142   -0.000182
  C      1.029497    1.450180   -0.001284
  C     -0.224300    0.774511   -0.001570
  C     -0.248913   -0.645289   -0.002488
  O     -1.551529   -1.079283   -0.002840
  C     -2.311987   -0.004618   -0.000202
  C     -1.558885    1.183833    0.000412
  H     -1.966737    2.193921    0.003346
  H     -3.391360   -0.163954    0.002560
  H      1.069824    2.541534   -0.001944
  H      3.158261    1.158989    0.000614
  H      3.028379   -1.308823    0.003507
  H      0.827315   -2.517358    0.000305

 Multiplicity           Mult            ....    2
 Number of Electrons    NEL             ....   61
 Basis Dimension        Dim             ....  138

ORBITAL ENERGIES
----------------
                 SPIN UP ORBITALS
  NO   OCC          E(Eh)            E(eV)
   0   1.0000     -19.344254      -526.3839
   1   1.0000     -10.372657      -282.2543
   2   1.0000     -10.347341      -281.5655
   3   1.0000     -10.303735      -280.3789
   4   1.0000     -10.301789      -280.3259
   5   1.0000     -10.299417      -280.2614
   6   1.0000     -10.294718      -280.1335
   7   1.0000     -10.289376      -279.9882
   8   1.0000     -10.270185      -279.4659
   9   1.0000      -1.212949       -33.0060
  10   1.0000      -0.933929       -25.4135
  11   1.0000      -0.879608       -23.9353
  12   1.0000      -0.825119       -22.4526
  13   1.0000      -0.797891       -21.7117
  14   1.0000      -0.706604       -19.2277
  15   1.0000      -0.668715       -18.1967
  16   1.0000      -0.650500       -17.7010
  17   1.0000      -0.586202       -15.9514
  18   1.0000      -0.562307       -15.3011
  19   1.0000      -0.549194       -14.9443
  20   1.0000      -0.536245       -14.5920
  21   1.0000      -0.497369       -13.5341
  22   1.0000      -0.488855       -13.3024
  23   1.0000      -0.474817       -12.9204
  24   1.0000      -0.449544       -12.2327
  25   1.0000      -0.426760       -11.6127
  26   1.0000      -0.418545       -11.3892
  27   1.0000      -0.400224       -10.8907
  28   1.0000      -0.371314       -10.1040
  29   1.0000      -0.310231        -8.4418
  30   1.0000      -0.292537        -7.9603
  31   0.0000      -0.085327        -2.3219
  32   0.0000      -0.033153        -0.9021
  33   0.0000      -0.003352        -0.0912
  34   0.0000       0.070060         1.9064
  35   0.0000       0.093789         2.5521

                 SPIN DOWN ORBITALS
  NO   OCC          E(Eh)            E(eV)
   0   1.0000     -19.343544      -526.3646
   1   1.0000     -10.366867      -282.0968
   2   1.0000     -10.345786      -281.5231
   3   1.0000     -10.301689      -280.3232
   4   1.0000     -10.300869      -280.3009
   5   1.0000     -10.294326      -280.1228
   6   1.0000     -10.290817      -280.0274
   7   1.0000     -10.289642      -279.9954
   8   1.0000     -10.272266      -279.5226
   9   1.0000      -1.209092       -32.9011
  10   1.0000      -0.928594       -25.2683
  11   1.0000      -0.870866       -23.6975
  12   1.0000      -0.821595       -22.3567
  13   1.0000      -0.784858       -21.3571
  14   1.0000      -0.702540       -19.1171
  15   1.0000      -0.662691       -18.0327
  16   1.0000      -0.645567       -17.5668
  17   1.0000      -0.583201       -15.8697
  18   1.0000      -0.558113       -15.1870
  19   1.0000      -0.533722       -14.5233
  20   1.0000      -0.532631       -14.4936
  21   1.0000      -0.495756       -13.4902
  22   1.0000      -0.485994       -13.2246
  23   1.0000      -0.472652       -12.8615
  24   1.0000      -0.446569       -12.1518
  25   1.0000      -0.416866       -11.3435
  26   1.0000      -0.409310       -11.1379
  27   1.0000      -0.398775       -10.8512
  28   1.0000      -0.341759        -9.2997
  29   1.0000      -0.304197        -8.2776
  30   0.0000      -0.202269        -5.5040
  31   0.0000      -0.051715        -1.4072
  32   0.0000      -0.020781        -0.5655
  33   0.0000       0.022576         0.6143
  34   0.0000       0.071409         1.9431

MULLIKEN ATOMIC CHARGES AND SPIN POPULATIONS
--------------------------------------------
   0 C :   -0.124502   -0.015012
   1 C :   -0.042738    0.350982
   2 C :   -0.093636   -0.166098
   3 C :   -0.043713    0.272435
   4 C :    0.063677   -0.014317
   5 C :    0.230441    0.077695
   6 O :   -0.191156    0.013001
   7 C :    0.193176    0.336980
   8 C :   -0.097091    0.196698
   9 H :    0.194493   -0.009588
  10 H :    0.223901   -0.018129
  11 H :    0.167883   -0.013225
  12 H :    0.164611    0.005930
  13 H :    0.183560   -0.017636
  14 H :    0.171094    0.000284
Sum of atomic charges         :    1.0000000

LOEWDIN ATOMIC CHARGES AND SPIN POPULATIONS
-------------------------------------------
   0 C :   -0.079717    0.002760
   1 C :   -0.004825    0.284447
   2 C :   -0.118627   -0.095220
   3 C :   -0.021605    0.218165
   4 C :   -0.025329    0.032448
   5 C :    0.071942    0.077072
   6 O :    0.041065    0.027087
   7 C :    0.115514    0.310886
   8 C :   -0.054004    0.170437
   9 H :    0.190228   -0.005458
  10 H :    0.188163   -0.010049
  11 H :    0.174617   -0.006852
  12 H :    0.166554    0.002835
  13 H :    0.173326   -0.008667
  14 H :    0.182696    0.000110

  Mayer bond orders larger than 0.100000
B(  0-C ,  1-C ) :   1.2339 B(  0-C ,  5-C ) :   1.4731 B(  0-C , 14-H ) :   0.9677
B(  1-C ,  2-C ) :   1.3161 B(  1-C , 13-H ) :   0.9457 B(  2-C ,  3-C ) :   1.4481
B(  2-C , 12-H ) :   0.9564 B(  3-C ,  4-C ) :   1.1711 B(  3-C , 11-H ) :   0.9635
B(  4-C ,  5-C ) :   1.1736 B(  4-C ,  8-C ) :   1.3543 B(  5-C ,  6-O ) :   1.0200
B(  6-O ,  7-C ) :   1.2420 B(  7-C ,  8-C ) :   1.2676 B(  7-C , 10-H ) :   0.9395
B(  8-C ,  9-H ) :   0.9636

Dispersion correction           -0.013694954
FINAL SINGLE POINT ENERGY      -382.747393896117

DIPOLE MOMENT
-------------

Method             : SCF
Type of density    : Electron Density
Multiplicity       :   2
Irrep              :   0
Energy             :  -382.7336989417094060 Eh
Relativity type    :
Basis              : AO
                                X                 Y                 Z
Electronic contribution:     -3.014787577      -1.171093877      -0.008503784
Nuclear contribution   :      2.535961847       1.767108459       0.012738353
                        -----------------------------------------
Total Dipole Moment    :     -0.478825730       0.596014582       0.004234569
                        -----------------------------------------
Magnitude (a.u.)       :      0.764542604
Magnitude (Debye)      :      1.943312861

Rotational constants in cm-1:             0.129613             0.055854             0.039034
Rotational constants in MHz :          3885.696852          1674.475071          1170.199104

                             ****ORCA TERMINATED NORMALLY****
TOTAL RUN TIME: 0 days 0 hours 5 minutes 4 seconds 319 msec
