                         Program Version 6.0.0  -   RELEASE  -
|  1> !B3LYP opt aug-cc-pVTZ d3 TightSCF SlowConv RIJCOSX defgrid2
|  2>
|  3> %pal
|  4> nprocs 8
|  5> end
|  6>
|  7> %scf
|  8> MaxIter 1500
|  9> end
| 10>
| 11> %maxcore 3500
| 12>
| 13> !CPCM
| 14> %cpcm smd true
| 15> SMDsolvent "MeCN"
| 16> surfacetype gepol_ses
| 17> rsolv 2.19
| 18> end
| 19>
| 20> * xyz -1 2
| 21> C           0.68315502285048     -1.23058998559791     -0.00197785400563
| 22> C          -0.69097039389614     -1.22820808682412     -0.00110778792906
| 23> C          -1.39878915837568      0.00192561974512      0.00006123035750
| 24> C          -0.67088260295619      1.21697689217912      0.00034729291936
| 25> C           0.70599002665524      1.19710781410292     -0.00056169847882
| 26> C           1.43890972865005     -0.02356673016238     -0.00174160392592
| 27> C           2.88835051512998     -0.09555430971111     -0.00265662366589
| 28> O           3.51113560358604     -1.16132419888811     -0.00429988492646
| 29> C           3.67215429347512      1.21312233920081     -0.00319382492201
| 30> H           3.44490427270519      1.82862721041062      0.88658626511100
| 31> H           4.74564035342603      0.96713680695522     -0.00513239151038
| 32> H           3.44193148262032      1.82994436135706     -0.89128425723845
| 33> H           1.24130264942652      2.15210104681416     -0.00032125400509
| 34> H          -1.23634900308120      2.15002194871812      0.00128004669295
| 35> N          -2.79949677516438      0.01738261553575      0.00104508920787
| 36> O          -3.38660343043673      1.11542368371417      0.00320409549424
| 37> O          -3.41030224545591     -1.06695584054066      0.00182719273433
| 38> H          -1.27295707729704     -2.15125183977829     -0.00128101747157
| 39> H           1.24384223813830     -2.16976914723049     -0.00287851443797
| 40> *
| 41>
| 42>                          ****END OF INPUT****
 Total Charge           Charge          ....   -1
 Multiplicity           Mult            ....    2
 Number of Electrons    NEL             ....   87
Dispersion correction           -0.035884735
FINAL SINGLE POINT ENERGY      -589.474729793713
Dispersion correction             ... done (  0.1 sec)
Dispersion correction           -0.035953471
FINAL SINGLE POINT ENERGY      -589.477598448548
Dispersion correction             ... done (  0.1 sec)
Dispersion correction           -0.035982053
FINAL SINGLE POINT ENERGY      -589.478100158798
Dispersion correction             ... done (  0.1 sec)
FINAL SINGLE POINT ENERGY      -589.478117296998
Dispersion correction             ... done (  0.1 sec)
Dispersion correction           -0.035972519
FINAL SINGLE POINT ENERGY      -589.478178014474
Dispersion correction             ... done (  0.1 sec)
Dispersion correction           -0.035971397
FINAL SINGLE POINT ENERGY      -589.478180182819
Dispersion correction             ... done (  0.1 sec)
                    ***********************HURRAY********************

CARTESIAN COORDINATES (ANGSTROEM)
---------------------------------
  C      0.683288   -1.228712   -0.002023
  C     -0.689307   -1.224384   -0.001090
  C     -1.390826    0.003442    0.000422
  C     -0.661857    1.212608   -0.000170
  C      0.713717    1.186428   -0.001236
  C      1.429503   -0.029475   -0.001855
  C      2.891894   -0.082379   -0.002372
  O      3.500617   -1.157089   -0.004977
  C      3.667302    1.216170   -0.002613
  H      3.429506    1.816676    0.877525
  H      4.732185    0.996133   -0.005859
  H      3.424820    1.819382   -0.879513
  H      1.246519    2.126373   -0.001859
  H     -1.199143    2.147282    0.000429
  N     -2.779792    0.019459    0.002503
  O     -3.394876    1.140304    0.002844
  O     -3.421246   -1.086530    0.001861
  H     -1.249942   -2.145475   -0.001250
  H      1.218601   -2.167664   -0.002852

 Multiplicity           Mult            ....    2
 Number of Electrons    NEL             ....   87
 Basis Dimension        Dim             ....  713

ORBITAL ENERGIES
----------------
                 SPIN UP ORBITALS
  NO   OCC          E(Eh)            E(eV)
   0   1.0000     -19.094587      -519.5901
   1   1.0000     -19.093499      -519.5605
   2   1.0000     -19.093395      -519.5577
   3   1.0000     -14.466154      -393.6441
   4   1.0000     -10.241350      -278.6813
   5   1.0000     -10.202813      -277.6327
   6   1.0000     -10.170912      -276.7646
   7   1.0000     -10.167811      -276.6802
   8   1.0000     -10.166781      -276.6522
   9   1.0000     -10.166285      -276.6387
  10   1.0000     -10.166123      -276.6343
  11   1.0000     -10.153758      -276.2978
  12   1.0000      -1.133843       -30.8534
  13   1.0000      -1.016696       -27.6657
  14   1.0000      -0.964017       -26.2322
  15   1.0000      -0.858965       -23.3736
  16   1.0000      -0.789094       -21.4723
  17   1.0000      -0.746164       -20.3041
  18   1.0000      -0.728855       -19.8332
  19   1.0000      -0.681172       -18.5356
  20   1.0000      -0.597463       -16.2578
  21   1.0000      -0.582997       -15.8642
  22   1.0000      -0.541406       -14.7324
  23   1.0000      -0.506444       -13.7811
  24   1.0000      -0.478058       -13.0086
  25   1.0000      -0.473480       -12.8840
  26   1.0000      -0.463266       -12.6061
  27   1.0000      -0.436590       -11.8802
  28   1.0000      -0.434695       -11.8286
  29   1.0000      -0.428970       -11.6729
  30   1.0000      -0.415988       -11.3196
  31   1.0000      -0.399671       -10.8756
  32   1.0000      -0.392204       -10.6724
  33   1.0000      -0.367594       -10.0027
  34   1.0000      -0.364048        -9.9063
  35   1.0000      -0.341939        -9.3046
  36   1.0000      -0.329370        -8.9626
  37   1.0000      -0.276951        -7.5362
  38   1.0000      -0.268756        -7.3132
  39   1.0000      -0.258645        -7.0381
  40   1.0000      -0.256142        -6.9700
  41   1.0000      -0.241972        -6.5844
  42   1.0000      -0.238226        -6.4825
  43   1.0000      -0.137611        -3.7446
  44   0.0000      -0.036931        -1.0049
  45   0.0000      -0.005589        -0.1521
  46   0.0000      -0.001160        -0.0316
  47   0.0000       0.011969         0.3257
  48   0.0000       0.016892         0.4596

                 SPIN DOWN ORBITALS
  NO   OCC          E(Eh)            E(eV)
   0   1.0000     -19.092334      -519.5288
   1   1.0000     -19.088524      -519.4252
   2   1.0000     -19.088483      -519.4240
   3   1.0000     -14.460189      -393.4817
   4   1.0000     -10.240975      -278.6711
   5   1.0000     -10.202409      -277.6217
   6   1.0000     -10.171420      -276.7784
   7   1.0000     -10.168188      -276.6905
   8   1.0000     -10.165075      -276.6058
   9   1.0000     -10.164698      -276.5955
  10   1.0000     -10.164516      -276.5905
  11   1.0000     -10.153796      -276.2988
  12   1.0000      -1.123206       -30.5640
  13   1.0000      -1.012755       -27.5585
  14   1.0000      -0.954303       -25.9679
  15   1.0000      -0.855924       -23.2909
  16   1.0000      -0.782692       -21.2981
  17   1.0000      -0.743842       -20.2410
  18   1.0000      -0.725734       -19.7482
  19   1.0000      -0.674187       -18.3455
  20   1.0000      -0.596680       -16.2365
  21   1.0000      -0.578385       -15.7387
  22   1.0000      -0.539639       -14.6843
  23   1.0000      -0.500335       -13.6148
  24   1.0000      -0.469945       -12.7879
  25   1.0000      -0.460792       -12.5388
  26   1.0000      -0.448873       -12.2144
  27   1.0000      -0.434006       -11.8099
  28   1.0000      -0.432170       -11.7599
  29   1.0000      -0.424483       -11.5508
  30   1.0000      -0.415358       -11.3025
  31   1.0000      -0.398118       -10.8333
  32   1.0000      -0.391301       -10.6478
  33   1.0000      -0.362857        -9.8738
  34   1.0000      -0.360845        -9.8191
  35   1.0000      -0.332690        -9.0530
  36   1.0000      -0.328769        -8.9463
  37   1.0000      -0.264174        -7.1885
  38   1.0000      -0.254967        -6.9380
  39   1.0000      -0.242197        -6.5905
  40   1.0000      -0.239633        -6.5207
  41   1.0000      -0.238333        -6.4854
  42   1.0000      -0.233510        -6.3541
  43   0.0000      -0.072670        -1.9775
  44   0.0000      -0.011016        -0.2998
  45   0.0000      -0.002951        -0.0803
  46   0.0000      -0.001152        -0.0313
  47   0.0000       0.012022         0.3271

MULLIKEN ATOMIC CHARGES AND SPIN POPULATIONS
--------------------------------------------
   0 C :   -0.879388   -0.022400
   1 C :   -0.412999    0.097651
   2 C :    0.436322    0.015815
   3 C :   -0.661746    0.110304
   4 C :   -0.371427   -0.021323
   5 C :    1.449617    0.156508
   6 C :    0.568847    0.018557
   7 O :   -0.984850    0.083713
   8 C :   -0.609617   -0.004153
   9 H :    0.245881    0.002099
  10 H :    0.169254   -0.000773
  11 H :    0.244552    0.002091
  12 H :   -0.001338    0.002128
  13 H :    0.419857   -0.003726
  14 N :    0.582250    0.172110
  15 O :   -0.854387    0.197128
  16 O :   -0.852897    0.199261
  17 H :    0.472152   -0.004770
  18 H :    0.039916   -0.000217
Sum of atomic charges         :   -1.0000000

LOEWDIN ATOMIC CHARGES AND SPIN POPULATIONS
-------------------------------------------
   0 C :    0.177467    0.020525
   1 C :    0.183903    0.047033
   2 C :   -0.307293    0.058387
   3 C :    0.188559    0.052646
   4 C :    0.188146    0.023169
   5 C :   -0.154075    0.079735
   6 C :   -0.577933    0.052165
   7 O :    0.439134    0.071750
   8 C :    0.553323    0.006596
   9 H :   -0.168385    0.001524
  10 H :   -0.188365   -0.000074
  11 H :   -0.168638    0.001522
  12 H :   -0.191481   -0.001120
  13 H :   -0.216917    0.011762
  14 N :   -0.817824    0.203381
  15 O :    0.237782    0.179988
  16 O :    0.237991    0.181920
  17 H :   -0.217584    0.010408
  18 H :   -0.197810   -0.001319

  Mayer bond orders larger than 0.100000
B(  0-C ,  1-C ) :   1.4623 B(  0-C ,  2-C ) :  -0.3390 B(  0-C ,  4-C ) :  -0.4676
B(  0-C ,  5-C ) :   0.1371 B(  0-C ,  6-C ) :   0.3011 B(  0-C , 16-O ) :  -0.1643
B(  0-C , 18-H ) :   1.2744 B(  1-C ,  2-C ) :   0.8644 B(  1-C ,  3-C ) :   0.2210
B(  1-C ,  4-C ) :  -0.1793 B(  1-C ,  5-C ) :   0.2593 B(  1-C , 14-N ) :  -0.1490
B(  1-C , 16-O ) :  -0.1138 B(  1-C , 17-H ) :   0.4071 B(  2-C ,  3-C ) :   0.7590
B(  2-C ,  4-C ) :  -0.2819 B(  2-C , 14-N ) :   1.3326 B(  2-C , 15-O ) :   0.4619
B(  2-C , 16-O ) :   0.4851 B(  3-C ,  4-C ) :   1.0674 B(  3-C ,  5-C ) :   0.2814
B(  3-C , 13-H ) :   0.4723 B(  3-C , 14-N ) :  -0.2159 B(  4-C ,  5-C ) :   0.3033
B(  4-C ,  6-C ) :   0.1940 B(  4-C , 12-H ) :   1.4457 B(  4-C , 15-O ) :  -0.1524
B(  5-C ,  6-C ) :   0.2357 B(  5-C ,  7-O ) :   0.1987 B(  5-C , 12-H ) :  -0.2666
B(  5-C , 18-H ) :  -0.1731 B(  6-C ,  7-O ) :   0.7691 B(  6-C ,  8-C ) :   0.9337
B(  7-O , 18-H ) :   0.1659 B(  8-C ,  9-H ) :   0.9706 B(  8-C , 10-H ) :   0.9706
B(  8-C , 11-H ) :   0.9712 B( 14-N , 15-O ) :   0.7349 B( 14-N , 16-O ) :   0.7346
B( 15-O , 16-O ) :   0.1203

Dispersion correction           -0.035970651
FINAL SINGLE POINT ENERGY      -589.478182199804

DIPOLE MOMENT
-------------

Method             : SCF
Type of density    : Electron Density
Multiplicity       :   2
Irrep              :   0
Energy             :  -589.4422115493034653 Eh
Relativity type    :
Basis              : AO
                                X                 Y                 Z
Electronic contribution:     -7.253324748      -2.943803737       0.006865821
Nuclear contribution   :     10.840458354       4.296325044      -0.007969774
                        -----------------------------------------
Total Dipole Moment    :      3.587133606       1.352521307      -0.001103953
                        -----------------------------------------
Magnitude (a.u.)       :      3.833646125
Magnitude (Debye)      :      9.744354054

Rotational constants in cm-1:             0.094982             0.015869             0.013631
Rotational constants in MHz :          2847.493748           475.739128           408.660228

                             ****ORCA TERMINATED NORMALLY****
TOTAL RUN TIME: 0 days 0 hours 49 minutes 3 seconds 482 msec
