                         Program Version 6.0.0  -   RELEASE  -
|  1> !r2SCAN freq aug-cc-pVTZ d3 TightSCF SlowConv RIJCOSX defgrid2
|  2>
|  3> %pal
|  4> nprocs 12
|  5> end
|  6>
|  7> %scf
|  8> MaxIter 1500
|  9> end
| 10>
| 11> %maxcore 5000
| 12>
| 13> !CPCM
| 14> %cpcm smd true
| 15> SMDsolvent "MeCN"
| 16> surfacetype gepol_ses
| 17> rsolv 2.19
| 18> end
| 19>
| 20> * xyz 0 1
| 21> C          -0.23030792598601     -1.20623951149265      0.00258683469850
| 22> C           1.15811296354663     -1.19943938095008      0.00065766100626
| 23> C           1.86707376327120     -0.00003039606983      0.00080629732861
| 24> C           1.15814234148911      1.19939598970783      0.00065686864791
| 25> C          -0.23027814910813      1.20622983574980      0.00258528315097
| 26> C          -0.94679747157423      0.00000373571440      0.00463597610526
| 27> N          -2.33067861486021      0.00002090152678      0.06914829824435
| 28> H          -2.78156070471520      0.83782957184854     -0.26646485419443
| 29> H          -2.78158225655674     -0.83777497697475     -0.26646786965758
| 30> H          -0.77327853118846      2.14570384347163      0.00183016888245
| 31> H           1.69093438795995      2.14402135091077     -0.00369315624245
| 32> H           2.95023855324713     -0.00004360132051     -0.00229802273172
| 33> H           1.69088187230463     -2.14407780556172     -0.00369196874080
| 34> H          -0.77333062782969     -2.14570055656018      0.00183218350266
| 35> *
| 36>
| 37>                          ****END OF INPUT****

CARTESIAN COORDINATES (ANGSTROEM)
---------------------------------
  C     -0.230308   -1.206240    0.002587
  C      1.158113   -1.199439    0.000658
  C      1.867074   -0.000030    0.000806
  C      1.158142    1.199396    0.000657
  C     -0.230278    1.206230    0.002585
  C     -0.946797    0.000004    0.004636
  N     -2.330679    0.000021    0.069148
  H     -2.781561    0.837830   -0.266465
  H     -2.781582   -0.837775   -0.266468
  H     -0.773279    2.145704    0.001830
  H      1.690934    2.144021   -0.003693
  H      2.950239   -0.000044   -0.002298
  H      1.690882   -2.144078   -0.003692
  H     -0.773331   -2.145701    0.001832

 Total Charge           Charge          ....    0
 Multiplicity           Mult            ....    1
 Number of Electrons    NEL             ....   50
 Basis Dimension        Dim             ....  483

ORBITAL ENERGIES
----------------

  NO   OCC          E(Eh)            E(eV)
   0   2.0000     -14.163024      -385.3955
   1   2.0000     -10.077435      -274.2209
   2   2.0000     -10.035434      -273.0780
   3   2.0000     -10.035419      -273.0776
   4   2.0000     -10.029264      -272.9101
   5   2.0000     -10.029257      -272.9100
   6   2.0000     -10.025403      -272.8051
   7   2.0000      -0.883897       -24.0521
   8   2.0000      -0.802597       -21.8398
   9   2.0000      -0.710787       -19.3415
  10   2.0000      -0.690667       -18.7940
  11   2.0000      -0.576845       -15.6968
  12   2.0000      -0.563192       -15.3252
  13   2.0000      -0.489359       -13.3161
  14   2.0000      -0.469052       -12.7636
  15   2.0000      -0.441789       -12.0217
  16   2.0000      -0.396002       -10.7758
  17   2.0000      -0.390773       -10.6335
  18   2.0000      -0.381179       -10.3724
  19   2.0000      -0.361062        -9.8250
  20   2.0000      -0.322346        -8.7715
  21   2.0000      -0.303089        -8.2475
  22   2.0000      -0.290060        -7.8929
  23   2.0000      -0.236833        -6.4446
  24   2.0000      -0.188775        -5.1368
  25   0.0000      -0.034065        -0.9270
  26   0.0000      -0.017644        -0.4801
  27   0.0000       0.007790         0.2120
  28   0.0000       0.021708         0.5907
  29   0.0000       0.027041         0.7358

MULLIKEN ATOMIC CHARGES
-----------------------
   0 C :   -0.962160
   1 C :   -0.277420
   2 C :   -0.536264
   3 C :   -0.277426
   4 C :   -0.962144
   5 C :    1.338005
   6 N :   -0.578614
   7 H :    0.043650
   8 H :    0.043650
   9 H :    0.495579
  10 H :    0.328617
  11 H :    0.520331
  12 H :    0.328620
  13 H :    0.495577
Sum of atomic charges:    0.0000000

LOEWDIN ATOMIC CHARGES
----------------------
   0 C :    0.203548
   1 C :    0.165520
   2 C :    0.167397
   3 C :    0.165520
   4 C :    0.203548
   5 C :   -0.269344
   6 N :    0.862799
   7 H :   -0.291609
   8 H :   -0.291609
   9 H :   -0.178345
  10 H :   -0.183058
  11 H :   -0.192966
  12 H :   -0.183058
  13 H :   -0.178345

  Mayer bond orders larger than 0.100000
B(  0-C ,  1-C ) :   1.1082 B(  0-C ,  2-C ) :   0.3487 B(  0-C ,  3-C ) :  -0.1780
B(  0-C ,  4-C ) :   0.5851 B(  0-C ,  5-C ) :   0.5429 B(  0-C , 13-H ) :   0.2797
B(  1-C ,  2-C ) :   1.0216 B(  1-C ,  3-C ) :  -0.1400 B(  1-C ,  4-C ) :  -0.1780
B(  1-C ,  5-C ) :  -0.2343 B(  1-C , 12-H ) :   0.8562 B(  2-C ,  3-C ) :   1.0216
B(  2-C ,  4-C ) :   0.3487 B(  2-C ,  5-C ) :  -0.1281 B(  2-C , 11-H ) :   0.4797
B(  3-C ,  4-C ) :   1.1082 B(  3-C ,  5-C ) :  -0.2343 B(  3-C , 10-H ) :   0.8562
B(  4-C ,  5-C ) :   0.5429 B(  4-C ,  9-H ) :   0.2797 B(  5-C ,  6-N ) :   0.4578
B(  5-C ,  9-H ) :   0.1531 B(  5-C , 13-H ) :   0.1531 B(  6-N ,  7-H ) :   1.0830
B(  6-N ,  8-H ) :   1.0830

Dispersion correction           -0.003791368
FINAL SINGLE POINT ENERGY      -287.561490819228

DIPOLE MOMENT
-------------

Method             : SCF
Type of density    : Electron Density
Multiplicity       :   1
Irrep              :   0
Energy             :  -287.5576994514898956 Eh
Relativity type    :
Basis              : AO
                                X                 Y                 Z
Electronic contribution:     -0.097420862       0.000000161       0.053107720
Nuclear contribution   :     -0.736251162       0.000010471      -0.545380760
                        -----------------------------------------
Total Dipole Moment    :     -0.833672024       0.000010632      -0.492273040
                        -----------------------------------------
Magnitude (a.u.)       :      0.968164134
Magnitude (Debye)      :      2.460877659

VIBRATIONAL FREQUENCIES
-----------------------

Scaling factor for frequencies =  1.000000000  (already applied!)

     0:       0.00 cm**-1
     1:       0.00 cm**-1
     2:       0.00 cm**-1
     3:       0.00 cm**-1
     4:       0.00 cm**-1
     5:       0.00 cm**-1
     6:     213.78 cm**-1
     7:     312.94 cm**-1
     8:     382.73 cm**-1
     9:     414.81 cm**-1
    10:     483.21 cm**-1
    11:     530.92 cm**-1
    12:     546.55 cm**-1
    13:     629.84 cm**-1
    14:     702.33 cm**-1
    15:     758.95 cm**-1
    16:     830.80 cm**-1
    17:     832.79 cm**-1
    18:     881.78 cm**-1
    19:     972.99 cm**-1
    20:     986.03 cm**-1
    21:    1009.61 cm**-1
    22:    1043.03 cm**-1
    23:    1057.61 cm**-1
    24:    1128.16 cm**-1
    25:    1158.33 cm**-1
    26:    1183.11 cm**-1
    27:    1301.91 cm**-1
    28:    1355.47 cm**-1
    29:    1375.17 cm**-1
    30:    1490.34 cm**-1
    31:    1519.07 cm**-1
    32:    1614.78 cm**-1
    33:    1619.47 cm**-1
    34:    1634.78 cm**-1
    35:    3147.52 cm**-1
    36:    3149.50 cm**-1
    37:    3162.89 cm**-1
    38:    3167.34 cm**-1
    39:    3184.42 cm**-1
    40:    3538.71 cm**-1
    41:    3639.77 cm**-1

IR SPECTRUM
-----------

 Mode   freq       eps      Int      T**2         TX        TY        TZ
       cm**-1   L/(mol*cm) km/mol    a.u.
----------------------------------------------------------------------------
  6:    213.78   0.002684   13.56  0.003918  (-0.035387  0.000000  0.051629)
  7:    312.94   0.007416   37.48  0.007395  ( 0.000003  0.085996 -0.000001)
  8:    382.73   0.000126    0.64  0.000103  (-0.000005 -0.010147  0.000001)
  9:    414.81   0.000003    0.02  0.000002  (-0.000000 -0.001551  0.000000)
 10:    483.21   0.074535  376.67  0.048135  ( 0.150630 -0.000002 -0.159519)
 11:    530.92   0.014817   74.88  0.008709  (-0.089213  0.000003  0.027386)
 12:    546.55   0.036629  185.11  0.020915  (-0.131180  0.000001  0.060879)
 13:    629.84   0.000216    1.09  0.000107  (-0.000000 -0.010348  0.000001)
 14:    702.33   0.011948   60.38  0.005309  ( 0.008242 -0.000000  0.072394)
 15:    758.95   0.023915  120.86  0.009833  (-0.016230  0.000000  0.097825)
 16:    830.80   0.000014    0.07  0.000005  (-0.000000  0.002313 -0.000000)
 17:    832.79   0.001730    8.74  0.000648  ( 0.023427 -0.000000  0.009977)
 18:    881.78   0.003316   16.76  0.001173  (-0.003222 -0.000000  0.034104)
 19:    972.99   0.000001    0.00  0.000000  (-0.000000  0.000508 -0.000000)
 20:    986.03   0.000032    0.16  0.000010  (-0.000422  0.000000  0.003136)
 21:   1009.61   0.001471    7.43  0.000455  (-0.020770  0.000016 -0.004814)
 22:   1043.03   0.002889   14.60  0.000864  (-0.029401 -0.000030 -0.000187)
 23:   1057.61   0.001342    6.78  0.000396  (-0.000019  0.019898  0.000002)
 24:   1128.16   0.002627   13.28  0.000727  (-0.000002  0.026956  0.000000)
 25:   1158.33   0.000761    3.85  0.000205  ( 0.000002  0.014321  0.000000)
 26:   1183.11   0.004434   22.41  0.001169  ( 0.034181  0.000000  0.001036)
 27:   1301.91   0.030852  155.92  0.007395  ( 0.085980  0.000000  0.001651)
 28:   1355.47   0.000239    1.21  0.000055  (-0.000018  0.007418 -0.000001)
 29:   1375.17   0.003654   18.47  0.000829  ( 0.000025 -0.028796  0.000000)
 30:   1490.34   0.000129    0.65  0.000027  (-0.000062 -0.005190  0.000001)
 31:   1519.07   0.029021  146.66  0.005962  ( 0.077206  0.000001 -0.001045)
 32:   1614.78   0.002928   14.80  0.000566  ( 0.000100  0.023789 -0.000042)
 33:   1619.47   0.006087   30.76  0.001173  (-0.027193 -0.000061 -0.020821)
 34:   1634.78   0.061110  308.82  0.011665  (-0.107781  0.000038 -0.006971)
 35:   3147.52   0.005400   27.29  0.000535  (-0.023137 -0.000001  0.000225)
 36:   3149.50   0.000310    1.56  0.000031  ( 0.000004  0.005538 -0.000000)
 37:   3162.89   0.002193   11.08  0.000216  ( 0.014710 -0.000003 -0.000035)
 38:   3167.34   0.012337   62.35  0.001216  (-0.000001 -0.034864  0.000000)
 39:   3184.42   0.004435   22.41  0.000435  (-0.020848  0.000002 -0.000117)
 40:   3538.71   0.011619   58.72  0.001025  ( 0.030728 -0.000000  0.008967)
 41:   3639.77   0.009549   48.26  0.000819  (-0.000000 -0.028613 -0.000000)

--------------------------
THERMOCHEMISTRY AT 298.15K
--------------------------

Temperature         ...   298.15 K
Pressure            ...     1.00 atm
Total Mass          ...    93.13 AMU
Quasi RRHO          ...     True
Cut-Off Frequency   ...     1.00 cm^-1

Throughout the following assumptions are being made:
  (1) The electronic state is orbitally nondegenerate
  (2) There are no thermally accessible electronically excited states
  (3) Hindered rotations indicated by low frequency modes are not
      treated as such but are treated as vibrations and this may
      cause some error
  (4) All equations used are the standard statistical mechanics
      equations for an ideal gas
  (5) All vibrations are strictly harmonic

freq.     213.78  E(vib)   ...       0.34
freq.     312.94  E(vib)   ...       0.25
freq.     382.73  E(vib)   ...       0.20
freq.     414.81  E(vib)   ...       0.19
freq.     483.21  E(vib)   ...       0.15
freq.     530.92  E(vib)   ...       0.13
freq.     546.55  E(vib)   ...       0.12
freq.     629.84  E(vib)   ...       0.09
freq.     702.33  E(vib)   ...       0.07
freq.     758.95  E(vib)   ...       0.06
freq.     830.80  E(vib)   ...       0.04
freq.     832.79  E(vib)   ...       0.04
freq.     881.78  E(vib)   ...       0.04
freq.     972.99  E(vib)   ...       0.03
freq.     986.03  E(vib)   ...       0.02
freq.    1009.61  E(vib)   ...       0.02
freq.    1043.03  E(vib)   ...       0.02
freq.    1057.61  E(vib)   ...       0.02
freq.    1128.16  E(vib)   ...       0.01
freq.    1158.33  E(vib)   ...       0.01
freq.    1183.11  E(vib)   ...       0.01
freq.    1301.91  E(vib)   ...       0.01
freq.    1355.47  E(vib)   ...       0.01
freq.    1375.17  E(vib)   ...       0.01
freq.    1490.34  E(vib)   ...       0.00
freq.    1519.07  E(vib)   ...       0.00
freq.    1614.78  E(vib)   ...       0.00
freq.    1619.47  E(vib)   ...       0.00
freq.    1634.78  E(vib)   ...       0.00
freq.    3147.52  E(vib)   ...       0.00
freq.    3149.50  E(vib)   ...       0.00
freq.    3162.89  E(vib)   ...       0.00
freq.    3167.34  E(vib)   ...       0.00
freq.    3184.42  E(vib)   ...       0.00
freq.    3538.71  E(vib)   ...       0.00
freq.    3639.77  E(vib)   ...       0.00

------------
INNER ENERGY
------------

The inner energy is: U= E(el) + E(ZPE) + E(vib) + E(rot) + E(trans)
    E(el)   - is the total energy from the electronic structure calculation
              = E(kin-el) + E(nuc-el) + E(el-el) + E(nuc-nuc)
    E(ZPE)  - the the zero temperature vibrational energy from the frequency calculation
    E(vib)  - the the finite temperature correction to E(ZPE) due to population
              of excited vibrational states
    E(rot)  - is the rotational thermal energy
    E(trans)- is the translational thermal energy

Summary of contributions to the inner energy U:
Electronic energy                ...   -287.56149082 Eh
Zero point energy                ...      0.11609873 Eh      72.85 kcal/mol
Thermal vibrational correction   ...      0.00302359 Eh       1.90 kcal/mol
Thermal rotational correction    ...      0.00141627 Eh       0.89 kcal/mol
Thermal translational correction ...      0.00141627 Eh       0.89 kcal/mol
-----------------------------------------------------------------------
Total thermal energy                   -287.43953596 Eh

Summary of corrections to the electronic energy:
(perhaps to be used in another calculation)
Total thermal correction                  0.00585613 Eh       3.67 kcal/mol
Non-thermal (ZPE) correction              0.11609873 Eh      72.85 kcal/mol
-----------------------------------------------------------------------
Total correction                          0.12195486 Eh      76.53 kcal/mol

--------
ENTHALPY
--------

The enthalpy is H = U + kB*T
                kB is Boltzmann's constant
Total thermal energy              ...   -287.43953596 Eh
Thermal Enthalpy correction       ...      0.00094421 Eh       0.59 kcal/mol
-----------------------------------------------------------------------
Total Enthalpy                    ...   -287.43859175 Eh

Note: Rotational entropy computed according to Herzberg
Infrared and Raman Spectra, Chapter V,1, Van Nostrand Reinhold, 1945
Point Group:  Cs, Symmetry Number:   1
Rotational constants in cm-1:     0.187979     0.087000     0.059560

Vibrational entropy computed according to the QRRHO of S. Grimme
Chem.Eur.J. 2012 18 9955 using a reference frequency of 100.0 cm-1

-------
ENTROPY
-------

The entropy contributions are T*S = T*(S(el)+S(vib)+S(rot)+S(trans))
     S(el)   - electronic entropy
     S(vib)  - vibrational entropy
     S(rot)  - rotational entropy
     S(trans)- translational entropy
The entropies will be listed as multiplied by the temperature to get
units of energy

Electronic entropy                ...      0.00000000 Eh      0.00 kcal/mol
Vibrational entropy               ...      0.00442914 Eh      2.78 kcal/mol
Rotational entropy                ...      0.01278430 Eh      8.02 kcal/mol
Translational entropy             ...      0.01877043 Eh     11.78 kcal/mol
-----------------------------------------------------------------------
Final entropy term                ...      0.03598387 Eh     22.58 kcal/mol

In case the symmetry of your molecule has not been determined correctly
or in case you have a reason to use a different symmetry number we print
out the resulting rotational entropy values for sn=1,12:

 non-linear molecules -----------------------------------
|  sn= 1 | S(rot)=       0.01278430 Eh      8.02 kcal/mol|
|  sn= 2 | S(rot)=       0.01212985 Eh      7.61 kcal/mol|
|  sn= 3 | S(rot)=       0.01174702 Eh      7.37 kcal/mol|
|  sn= 4 | S(rot)=       0.01147539 Eh      7.20 kcal/mol|
|  sn= 5 | S(rot)=       0.01126470 Eh      7.07 kcal/mol|
|  sn= 6 | S(rot)=       0.01109256 Eh      6.96 kcal/mol|
|  sn= 7 | S(rot)=       0.01094701 Eh      6.87 kcal/mol|
|  sn= 8 | S(rot)=       0.01082094 Eh      6.79 kcal/mol|
|  sn= 9 | S(rot)=       0.01070973 Eh      6.72 kcal/mol|
|  sn=10 | S(rot)=       0.01061025 Eh      6.66 kcal/mol|
|  sn=11 | S(rot)=       0.01052026 Eh      6.60 kcal/mol|
|  sn=12 | S(rot)=       0.01043810 Eh      6.55 kcal/mol|
 linear molecules ---------------------------------------
|  Dinfh | S(rot)=       0.00798913 Eh      5.01 kcal/mol|
|  Cinfv | S(rot)=       0.00864358 Eh      5.42 kcal/mol|
 --------------------------------------------------------

-------------------
GIBBS FREE ENERGY
-------------------

The Gibbs free energy is G = H - T*S

Total enthalpy                    ...   -287.43859175 Eh
Total entropy correction          ...     -0.03598387 Eh    -22.58 kcal/mol
-----------------------------------------------------------------------
Final Gibbs free energy         ...   -287.47457562 Eh

                             ****ORCA TERMINATED NORMALLY****
TOTAL RUN TIME: 0 days 0 hours 12 minutes 22 seconds 190 msec
