                         Program Version 6.0.0  -   RELEASE  -
|  1> !B3LYP freq aug-cc-pVTZ d3 TightSCF SlowConv RIJCOSX defgrid2
|  2>
|  3> %pal
|  4> nprocs 12
|  5>
|  6> end
|  7>
|  8> %scf
|  9> MaxIter 1500
| 10> end
| 11>
| 12> %maxcore 5000
| 13>
| 14> !CPCM
| 15> %cpcm smd true
| 16> SMDsolvent "MeCN"
| 17> surfacetype gepol_ses
| 18> rsolv 2.19
| 19> end
| 20>
| 21> * xyz 1 2
| 22> C           0.87615840353976     -1.21047237910106     -0.00086961799624
| 23> C           1.22919040354229      0.17448092535654     -0.00087394293402
| 24> C           0.19259440247352      1.14041126841147     -0.00113190662756
| 25> C          -1.13130156896218      0.78520807626532     -0.00072054445072
| 26> C          -1.46577234915655     -0.60887595875059     -0.00038813420063
| 27> C          -0.43756463247050     -1.57602876216046     -0.00070195544285
| 28> H          -0.70764925592977     -2.62221241120185     -0.00043834478427
| 29> C          -2.88328585119726     -1.03713570033025      0.00064610829809
| 30> H          -2.97926976888971     -2.11919596119673     -0.00183454985186
| 31> H          -3.40673542520208     -0.63050355108085     -0.86968444490992
| 32> H          -3.40324026274581     -0.63534335841193      0.87543690266932
| 33> C          -2.20803859202717      1.82048286888643     -0.00039788766255
| 34> H          -2.84964546330808      1.71835765259878      0.87735504458566
| 35> H          -2.85129454747040      1.71694664924329     -0.87674571898286
| 36> H          -1.78396469904663      2.82182638424684     -0.00167509728597
| 37> H           0.46810205581090      2.18596385593191     -0.00169923967930
| 38> C           2.57748515051925      0.62261556119958      0.00027100964911
| 39> C           3.67446886544004     -0.18403389883392      0.00117815114179
| 40> H           3.60954616593401     -1.26249606101049      0.00017153150362
| 41> H           4.66439077180657      0.24939506753414      0.00273771414902
| 42> H           2.72870078762747      1.69479189525173      0.00024888596217
| 43> H           1.64436220971233     -1.96761096284788     -0.00135046315006
| 44> *
| 45>
| 46>                          ****END OF INPUT****

CARTESIAN COORDINATES (ANGSTROEM)
---------------------------------
  C      0.876158   -1.210472   -0.000870
  C      1.229190    0.174481   -0.000874
  C      0.192594    1.140411   -0.001132
  C     -1.131302    0.785208   -0.000721
  C     -1.465772   -0.608876   -0.000388
  C     -0.437565   -1.576029   -0.000702
  H     -0.707649   -2.622212   -0.000438
  C     -2.883286   -1.037136    0.000646
  H     -2.979270   -2.119196   -0.001835
  H     -3.406735   -0.630504   -0.869684
  H     -3.403240   -0.635343    0.875437
  C     -2.208039    1.820483   -0.000398
  H     -2.849645    1.718358    0.877355
  H     -2.851295    1.716947   -0.876746
  H     -1.783965    2.821826   -0.001675
  H      0.468102    2.185964   -0.001699
  C      2.577485    0.622616    0.000271
  C      3.674469   -0.184034    0.001178
  H      3.609546   -1.262496    0.000172
  H      4.664391    0.249395    0.002738
  H      2.728701    1.694792    0.000249
  H      1.644362   -1.967611   -0.001350

 Total Charge           Charge          ....    1
 Multiplicity           Mult            ....    2
 Number of Electrons    NEL             ....   71
 Basis Dimension        Dim             ....  736

ORBITAL ENERGIES
----------------
                 SPIN UP ORBITALS
  NO   OCC          E(Eh)            E(eV)
   0   1.0000     -10.244144      -278.7573
   1   1.0000     -10.240331      -278.6536
   2   1.0000     -10.225644      -278.2539
   3   1.0000     -10.221398      -278.1384
   4   1.0000     -10.221095      -278.1301
   5   1.0000     -10.218234      -278.0523
   6   1.0000     -10.206735      -277.7394
   7   1.0000     -10.203644      -277.6553
   8   1.0000     -10.179552      -276.9997
   9   1.0000     -10.174060      -276.8502
  10   1.0000      -0.908672       -24.7262
  11   1.0000      -0.848215       -23.0811
  12   1.0000      -0.802053       -21.8250
  13   1.0000      -0.787003       -21.4154
  14   1.0000      -0.728613       -19.8266
  15   1.0000      -0.699154       -19.0250
  16   1.0000      -0.641851       -17.4657
  17   1.0000      -0.630808       -17.1652
  18   1.0000      -0.575892       -15.6708
  19   1.0000      -0.534843       -14.5538
  20   1.0000      -0.517112       -14.0713
  21   1.0000      -0.482778       -13.1371
  22   1.0000      -0.460065       -12.5190
  23   1.0000      -0.459393       -12.5007
  24   1.0000      -0.448946       -12.2164
  25   1.0000      -0.441111       -12.0032
  26   1.0000      -0.412759       -11.2317
  27   1.0000      -0.407008       -11.0752
  28   1.0000      -0.404787       -11.0148
  29   1.0000      -0.402159       -10.9433
  30   1.0000      -0.392993       -10.6939
  31   1.0000      -0.371143       -10.0993
  32   1.0000      -0.361664        -9.8414
  33   1.0000      -0.337158        -9.1745
  34   1.0000      -0.286585        -7.7984
  35   1.0000      -0.266392        -7.2489
  36   0.0000      -0.093603        -2.5471
  37   0.0000      -0.037857        -1.0302
  38   0.0000      -0.006753        -0.1838
  39   0.0000       0.002924         0.0796
  40   0.0000       0.003292         0.0896

                 SPIN DOWN ORBITALS
  NO   OCC          E(Eh)            E(eV)
   0   1.0000     -10.239669      -278.6356
   1   1.0000     -10.237166      -278.5674
   2   1.0000     -10.222134      -278.1584
   3   1.0000     -10.220627      -278.1174
   4   1.0000     -10.219638      -278.0905
   5   1.0000     -10.216397      -278.0023
   6   1.0000     -10.206695      -277.7383
   7   1.0000     -10.204263      -277.6721
   8   1.0000     -10.179647      -277.0023
   9   1.0000     -10.174071      -276.8505
  10   1.0000      -0.902243       -24.5513
  11   1.0000      -0.840448       -22.8698
  12   1.0000      -0.800525       -21.7834
  13   1.0000      -0.777688       -21.1620
  14   1.0000      -0.724712       -19.7204
  15   1.0000      -0.694015       -18.8851
  16   1.0000      -0.637534       -17.3482
  17   1.0000      -0.626896       -17.0587
  18   1.0000      -0.571743       -15.5579
  19   1.0000      -0.532977       -14.5030
  20   1.0000      -0.514403       -13.9976
  21   1.0000      -0.479936       -13.0597
  22   1.0000      -0.457651       -12.4533
  23   1.0000      -0.449902       -12.2425
  24   1.0000      -0.446422       -12.1478
  25   1.0000      -0.440053       -11.9745
  26   1.0000      -0.408865       -11.1258
  27   1.0000      -0.404918       -11.0184
  28   1.0000      -0.401729       -10.9316
  29   1.0000      -0.391313       -10.6482
  30   1.0000      -0.389472       -10.5981
  31   1.0000      -0.370114       -10.0713
  32   1.0000      -0.359464        -9.7815
  33   1.0000      -0.313461        -8.5297
  34   1.0000      -0.281803        -7.6683
  35   0.0000      -0.192893        -5.2489
  36   0.0000      -0.067800        -1.8449
  37   0.0000      -0.028814        -0.7841
  38   0.0000      -0.006492        -0.1767
  39   0.0000       0.003294         0.0896

MULLIKEN ATOMIC CHARGES AND SPIN POPULATIONS
--------------------------------------------
   0 C :   -0.212844    0.116863
   1 C :    2.081337    0.215607
   2 C :   -1.005879   -0.001314
   3 C :    0.635251    0.017208
   4 C :    0.876776    0.339533
   5 C :   -1.169851   -0.062572
   6 H :    0.101348    0.005275
   7 C :   -0.722871   -0.022860
   8 H :    0.107556   -0.006352
   9 H :    0.243108    0.022985
  10 H :    0.243388    0.023169
  11 C :   -0.728349   -0.003802
  12 H :    0.240980    0.003032
  13 H :    0.240826    0.003004
  14 H :    0.105351   -0.000522
  15 H :   -0.263338    0.002346
  16 C :    0.036276    0.004186
  17 C :   -0.880942    0.365326
  18 H :    0.311534   -0.001449
  19 H :    0.290588   -0.013618
  20 H :    0.213427    0.011419
  21 H :    0.256329   -0.017463
Sum of atomic charges         :    1.0000000

LOEWDIN ATOMIC CHARGES AND SPIN POPULATIONS
-------------------------------------------
   0 C :    0.284935    0.085907
   1 C :   -0.071895    0.125147
   2 C :    0.284602    0.038441
   3 C :   -0.041576    0.058868
   4 C :   -0.024479    0.156735
   5 C :    0.290057    0.044305
   6 H :   -0.151912   -0.002415
   7 C :    0.626752    0.051333
   8 H :   -0.154321    0.001415
   9 H :   -0.138808    0.012045
  10 H :   -0.138383    0.012135
  11 C :    0.611634    0.006611
  12 H :   -0.147539    0.001951
  13 H :   -0.147749    0.001949
  14 H :   -0.158495    0.000043
  15 H :   -0.149747    0.001570
  16 C :    0.261294    0.084730
  17 C :    0.649859    0.214394
  18 H :   -0.188317    0.043440
  19 H :   -0.169002    0.048869
  20 H :   -0.160863    0.000321
  21 H :   -0.166048    0.012206

  Mayer bond orders larger than 0.100000
B(  0-C ,  1-C ) :   0.1793 B(  0-C ,  2-C ) :  -0.8509 B(  0-C ,  3-C ) :  -0.2022
B(  0-C ,  5-C ) :   0.9342 B(  0-C , 16-C ) :   0.3372 B(  0-C , 21-H ) :   1.4018
B(  1-C ,  2-C ) :  -0.4401 B(  1-C ,  3-C ) :   0.4232 B(  1-C ,  4-C ) :  -0.4992
B(  1-C ,  7-C ) :   0.1091 B(  1-C , 15-H ) :  -0.3912 B(  1-C , 17-C ) :  -0.1453
B(  2-C ,  3-C ) :   0.7895 B(  2-C ,  4-C ) :  -0.2858 B(  2-C ,  5-C ) :   0.2430
B(  2-C , 11-C ) :  -0.2666 B(  2-C , 15-H ) :   2.2766 B(  2-C , 17-C ) :   0.1065
B(  2-C , 20-H ) :  -0.1462 B(  3-C ,  4-C ) :   1.1920 B(  3-C ,  5-C ) :   0.2680
B(  3-C ,  7-C ) :   0.1370 B(  3-C , 12-H ) :  -0.1082 B(  3-C , 13-H ) :  -0.1086
B(  3-C , 15-H ) :  -0.1616 B(  3-C , 20-H ) :   0.1758 B(  3-C , 21-H ) :  -0.2687
B(  4-C ,  5-C ) :   0.5348 B(  4-C ,  7-C ) :   0.3326 B(  4-C , 11-C ) :   0.4064
B(  4-C , 16-C ) :   0.2166 B(  4-C , 21-H ) :  -0.1340 B(  5-C ,  6-H ) :   1.1144
B(  5-C ,  7-C ) :  -0.1997 B(  5-C , 17-C ) :  -0.1191 B(  5-C , 21-H ) :  -0.1736
B(  7-C ,  8-H ) :   1.0707 B(  7-C ,  9-H ) :   0.9901 B(  7-C , 10-H ) :   0.9893
B( 11-C , 12-H ) :   1.0018 B( 11-C , 13-H ) :   1.0023 B( 11-C , 14-H ) :   1.0551
B( 15-H , 16-C ) :  -0.1909 B( 15-H , 20-H ) :  -0.1217 B( 15-H , 21-H ) :   0.1045
B( 16-C , 17-C ) :   0.8136 B( 16-C , 20-H ) :   0.9819 B( 17-C , 18-H ) :   1.0507
B( 17-C , 19-H ) :   0.8786 B( 17-C , 20-H ) :  -0.2229

Dispersion correction           -0.039597296
FINAL SINGLE POINT ENERGY      -388.003969592060

DIPOLE MOMENT
-------------

Method             : SCF
Type of density    : Electron Density
Multiplicity       :   2
Irrep              :   0
Energy             :  -387.9643722959060028 Eh
Relativity type    :
Basis              : AO
                                X                 Y                 Z
Electronic contribution:      5.431712606      -1.226824708      -0.004324090
Nuclear contribution   :     -4.581680445       1.055142183       0.005206672
                        -----------------------------------------
Total Dipole Moment    :      0.850032161      -0.171682525       0.000882582
                        -----------------------------------------
Magnitude (a.u.)       :      0.867196831
Magnitude (Debye)      :      2.204239171

VIBRATIONAL FREQUENCIES
-----------------------

Scaling factor for frequencies =  1.000000000  (already applied!)

     0:       0.00 cm**-1
     1:       0.00 cm**-1
     2:       0.00 cm**-1
     3:       0.00 cm**-1
     4:       0.00 cm**-1
     5:       0.00 cm**-1
     6:      27.22 cm**-1
     7:      52.62 cm**-1
     8:     100.86 cm**-1
     9:     143.20 cm**-1
    10:     198.03 cm**-1
    11:     201.87 cm**-1
    12:     268.14 cm**-1
    13:     310.10 cm**-1
    14:     377.64 cm**-1
    15:     413.47 cm**-1
    16:     422.36 cm**-1
    17:     459.71 cm**-1
    18:     517.29 cm**-1
    19:     555.21 cm**-1
    20:     605.92 cm**-1
    21:     710.93 cm**-1
    22:     713.74 cm**-1
    23:     744.18 cm**-1
    24:     818.51 cm**-1
    25:     901.19 cm**-1
    26:     925.57 cm**-1
    27:     963.80 cm**-1
    28:     995.17 cm**-1
    29:    1002.13 cm**-1
    30:    1012.81 cm**-1
    31:    1017.38 cm**-1
    32:    1022.36 cm**-1
    33:    1055.46 cm**-1
    34:    1059.34 cm**-1
    35:    1143.20 cm**-1
    36:    1198.82 cm**-1
    37:    1238.01 cm**-1
    38:    1260.76 cm**-1
    39:    1298.28 cm**-1
    40:    1319.55 cm**-1
    41:    1355.00 cm**-1
    42:    1374.06 cm**-1
    43:    1394.80 cm**-1
    44:    1418.22 cm**-1
    45:    1437.72 cm**-1
    46:    1447.53 cm**-1
    47:    1457.68 cm**-1
    48:    1463.86 cm**-1
    49:    1474.93 cm**-1
    50:    1490.85 cm**-1
    51:    1515.26 cm**-1
    52:    1573.31 cm**-1
    53:    1654.38 cm**-1
    54:    3015.65 cm**-1
    55:    3029.91 cm**-1
    56:    3053.20 cm**-1
    57:    3075.63 cm**-1
    58:    3122.54 cm**-1
    59:    3134.16 cm**-1
    60:    3156.89 cm**-1
    61:    3171.71 cm**-1
    62:    3185.55 cm**-1
    63:    3193.87 cm**-1
    64:    3214.59 cm**-1
    65:    3253.05 cm**-1

IR SPECTRUM
-----------

 Mode   freq       eps      Int      T**2         TX        TY        TZ
       cm**-1   L/(mol*cm) km/mol    a.u.
----------------------------------------------------------------------------
  6:     27.22   0.000448    2.27  0.005140  (-0.002840 -0.000194  0.071635)
  7:     52.62   0.000188    0.95  0.001113  ( 0.001812  0.000418  0.033317)
  8:    100.86   0.000000    0.00  0.000000  (-0.000120  0.000192  0.000406)
  9:    143.20   0.000528    2.67  0.001150  (-0.000241  0.000558  0.033914)
 10:    198.03   0.000181    0.91  0.000284  ( 0.000395 -0.016727 -0.002127)
 11:    201.87   0.000348    1.76  0.000539  (-0.000250  0.001932 -0.023127)
 12:    268.14   0.000141    0.71  0.000164  (-0.000365  0.000176  0.012781)
 13:    310.10   0.000040    0.20  0.000040  ( 0.004243 -0.004681 -0.000019)
 14:    377.64   0.000395    1.99  0.000326  (-0.015852  0.008648  0.000024)
 15:    413.47   0.002720   13.74  0.002053  ( 0.000245  0.000503 -0.045303)
 16:    422.36   0.000055    0.28  0.000040  (-0.005580  0.003016  0.000237)
 17:    459.71   0.000757    3.83  0.000514  (-0.000629  0.000033 -0.022661)
 18:    517.29   0.000676    3.42  0.000408  ( 0.019199  0.006271  0.000022)
 19:    555.21   0.001248    6.31  0.000701  (-0.025594 -0.006799 -0.000028)
 20:    605.92   0.000245    1.24  0.000126  (-0.000762 -0.000107  0.011201)
 21:    710.93   0.009271   46.85  0.004070  (-0.062830 -0.011008 -0.000836)
 22:    713.74   0.002652   13.40  0.001160  ( 0.001354  0.000368 -0.034024)
 23:    744.18   0.000916    4.63  0.000384  (-0.019077 -0.004485 -0.000085)
 24:    818.51   0.003923   19.83  0.001496  ( 0.000457  0.000096  0.038671)
 25:    901.19   0.001077    5.44  0.000373  (-0.000237 -0.000048 -0.019314)
 26:    925.57   0.001481    7.48  0.000499  (-0.018855 -0.011985  0.000378)
 27:    963.80   0.014831   74.95  0.004802  (-0.000515 -0.000117  0.069296)
 28:    995.17   0.003272   16.54  0.001026  (-0.004230 -0.000430  0.031749)
 29:   1002.13   0.008193   41.40  0.002551  ( 0.050011  0.007012  0.000950)
 30:   1012.81   0.000258    1.30  0.000079  (-0.002076 -0.000426 -0.008655)
 31:   1017.38   0.026595  134.40  0.008157  (-0.090302 -0.001436  0.000884)
 32:   1022.36   0.005711   28.86  0.001743  (-0.002200  0.000097 -0.041695)
 33:   1055.46   0.000936    4.73  0.000277  (-0.015634  0.005677 -0.000296)
 34:   1059.34   0.000506    2.55  0.000149  (-0.000620 -0.000062  0.012188)
 35:   1143.20   0.004783   24.17  0.001306  ( 0.027481 -0.023462 -0.000147)
 36:   1198.82   0.029816  150.68  0.007761  (-0.087534 -0.009964 -0.000070)
 37:   1238.01   0.037234  188.17  0.009386  (-0.096707 -0.005780  0.000061)
 38:   1260.76   0.026861  135.74  0.006649  ( 0.081506 -0.002287  0.000044)
 39:   1298.28   0.049395  249.62  0.011873  (-0.108963  0.000215  0.000003)
 40:   1319.55   0.001762    8.90  0.000417  ( 0.010991 -0.017199  0.000012)
 41:   1355.00   0.011909   60.18  0.002743  ( 0.047510 -0.022033 -0.000179)
 42:   1374.06   0.001507    7.61  0.000342  (-0.014432 -0.011566  0.000325)
 43:   1394.80   0.001638    8.28  0.000366  ( 0.001797 -0.019057  0.000257)
 44:   1418.22   0.010568   53.41  0.002325  (-0.042396 -0.022975  0.000308)
 45:   1437.72   0.002092   10.57  0.000454  ( 0.000196 -0.000257  0.021306)
 46:   1447.53   0.001258    6.36  0.000271  (-0.007620 -0.014571 -0.000861)
 47:   1457.68   0.005095   25.75  0.001091  ( 0.001063 -0.000160 -0.033009)
 48:   1463.86   0.073609  371.99  0.015692  ( 0.124739 -0.011479  0.000628)
 49:   1474.93   0.032546  164.47  0.006886  ( 0.082392  0.009868 -0.000477)
 50:   1490.85   0.090609  457.90  0.018966  (-0.137565 -0.006489 -0.000059)
 51:   1515.26   0.050311  254.25  0.010362  (-0.098258  0.026586 -0.000121)
 52:   1573.31   0.066215  334.62  0.013134  (-0.104654 -0.046703 -0.000059)
 53:   1654.38   0.007966   40.26  0.001503  (-0.031155 -0.023066  0.000045)
 54:   3015.65   0.003888   19.65  0.000402  ( 0.019556  0.004458 -0.000182)
 55:   3029.91   0.000738    3.73  0.000076  ( 0.006736 -0.005535 -0.000126)
 56:   3053.20   0.000254    1.28  0.000026  (-0.000467 -0.000067 -0.005071)
 57:   3075.63   0.001927    9.74  0.000196  ( 0.000033 -0.000024  0.013984)
 58:   3122.54   0.003824   19.32  0.000382  (-0.000929  0.019526  0.000045)
 59:   3134.16   0.007868   39.76  0.000783  (-0.021259 -0.018206  0.000007)
 60:   3156.89   0.002832   14.31  0.000280  ( 0.016726 -0.000420  0.000021)
 61:   3171.71   0.002002   10.12  0.000197  (-0.013268 -0.004570 -0.000073)
 62:   3185.55   0.000869    4.39  0.000085  (-0.001632 -0.009081 -0.000108)
 63:   3193.87   0.001848    9.34  0.000181  (-0.011599 -0.006780 -0.000066)
 64:   3214.59   0.000072    0.36  0.000007  ( 0.000593 -0.002570 -0.000012)
 65:   3253.05   0.000009    0.04  0.000001  (-0.000830  0.000363 -0.000041)

--------------------------
THERMOCHEMISTRY AT 298.15K
--------------------------

Temperature         ...   298.15 K
Pressure            ...     1.00 atm
Total Mass          ...   132.21 AMU
Quasi RRHO          ...     True
Cut-Off Frequency   ...     1.00 cm^-1

Throughout the following assumptions are being made:
  (1) The electronic state is orbitally nondegenerate
      but the spin degeneracy is treated
  (2) There are no thermally accessible electronically excited states
  (3) Hindered rotations indicated by low frequency modes are not
      treated as such but are treated as vibrations and this may
      cause some error
  (4) All equations used are the standard statistical mechanics
      equations for an ideal gas
  (5) All vibrations are strictly harmonic

freq.      27.22  E(vib)   ...       0.55
freq.      52.62  E(vib)   ...       0.52
freq.     100.86  E(vib)   ...       0.46
freq.     143.20  E(vib)   ...       0.41
freq.     198.03  E(vib)   ...       0.35
freq.     201.87  E(vib)   ...       0.35
freq.     268.14  E(vib)   ...       0.29
freq.     310.10  E(vib)   ...       0.26
freq.     377.64  E(vib)   ...       0.21
freq.     413.47  E(vib)   ...       0.19
freq.     422.36  E(vib)   ...       0.18
freq.     459.71  E(vib)   ...       0.16
freq.     517.29  E(vib)   ...       0.13
freq.     555.21  E(vib)   ...       0.12
freq.     605.92  E(vib)   ...       0.10
freq.     710.93  E(vib)   ...       0.07
freq.     713.74  E(vib)   ...       0.07
freq.     744.18  E(vib)   ...       0.06
freq.     818.51  E(vib)   ...       0.05
freq.     901.19  E(vib)   ...       0.03
freq.     925.57  E(vib)   ...       0.03
freq.     963.80  E(vib)   ...       0.03
freq.     995.17  E(vib)   ...       0.02
freq.    1002.13  E(vib)   ...       0.02
freq.    1012.81  E(vib)   ...       0.02
freq.    1017.38  E(vib)   ...       0.02
freq.    1022.36  E(vib)   ...       0.02
freq.    1055.46  E(vib)   ...       0.02
freq.    1059.34  E(vib)   ...       0.02
freq.    1143.20  E(vib)   ...       0.01
freq.    1198.82  E(vib)   ...       0.01
freq.    1238.01  E(vib)   ...       0.01
freq.    1260.76  E(vib)   ...       0.01
freq.    1298.28  E(vib)   ...       0.01
freq.    1319.55  E(vib)   ...       0.01
freq.    1355.00  E(vib)   ...       0.01
freq.    1374.06  E(vib)   ...       0.01
freq.    1394.80  E(vib)   ...       0.00
freq.    1418.22  E(vib)   ...       0.00
freq.    1437.72  E(vib)   ...       0.00
freq.    1447.53  E(vib)   ...       0.00
freq.    1457.68  E(vib)   ...       0.00
freq.    1463.86  E(vib)   ...       0.00
freq.    1474.93  E(vib)   ...       0.00
freq.    1490.85  E(vib)   ...       0.00
freq.    1515.26  E(vib)   ...       0.00
freq.    1573.31  E(vib)   ...       0.00
freq.    1654.38  E(vib)   ...       0.00
freq.    3015.65  E(vib)   ...       0.00
freq.    3029.91  E(vib)   ...       0.00
freq.    3053.20  E(vib)   ...       0.00
freq.    3075.63  E(vib)   ...       0.00
freq.    3122.54  E(vib)   ...       0.00
freq.    3134.16  E(vib)   ...       0.00
freq.    3156.89  E(vib)   ...       0.00
freq.    3171.71  E(vib)   ...       0.00
freq.    3185.55  E(vib)   ...       0.00
freq.    3193.87  E(vib)   ...       0.00
freq.    3214.59  E(vib)   ...       0.00
freq.    3253.05  E(vib)   ...       0.00

------------
INNER ENERGY
------------

The inner energy is: U= E(el) + E(ZPE) + E(vib) + E(rot) + E(trans)
    E(el)   - is the total energy from the electronic structure calculation
              = E(kin-el) + E(nuc-el) + E(el-el) + E(nuc-nuc)
    E(ZPE)  - the the zero temperature vibrational energy from the frequency calculation
    E(vib)  - the the finite temperature correction to E(ZPE) due to population
              of excited vibrational states
    E(rot)  - is the rotational thermal energy
    E(trans)- is the translational thermal energy

Summary of contributions to the inner energy U:
Electronic energy                ...   -388.00396959 Eh
Zero point energy                ...      0.18617005 Eh     116.82 kcal/mol
Thermal vibrational correction   ...      0.00774965 Eh       4.86 kcal/mol
Thermal rotational correction    ...      0.00141627 Eh       0.89 kcal/mol
Thermal translational correction ...      0.00141627 Eh       0.89 kcal/mol
-----------------------------------------------------------------------
Total thermal energy                   -387.80721735 Eh

Summary of corrections to the electronic energy:
(perhaps to be used in another calculation)
Total thermal correction                  0.01058219 Eh       6.64 kcal/mol
Non-thermal (ZPE) correction              0.18617005 Eh     116.82 kcal/mol
-----------------------------------------------------------------------
Total correction                          0.19675224 Eh     123.46 kcal/mol

--------
ENTHALPY
--------

The enthalpy is H = U + kB*T
                kB is Boltzmann's constant
Total thermal energy              ...   -387.80721735 Eh
Thermal Enthalpy correction       ...      0.00094421 Eh       0.59 kcal/mol
-----------------------------------------------------------------------
Total Enthalpy                    ...   -387.80627314 Eh

Note: Only C1 symmetry has been detected, increase convergence thresholds
      if your molecule has a higher symmetry. Symmetry factor of 1.0 is
      used for the rotational entropy correction.

Note: Rotational entropy computed according to Herzberg
Infrared and Raman Spectra, Chapter V,1, Van Nostrand Reinhold, 1945
Point Group:  C1, Symmetry Number:   1
Rotational constants in cm-1:     0.095979     0.029435     0.022714

Vibrational entropy computed according to the QRRHO of S. Grimme
Chem.Eur.J. 2012 18 9955 using a reference frequency of 100.0 cm-1

-------
ENTROPY
-------

The entropy contributions are T*S = T*(S(el)+S(vib)+S(rot)+S(trans))
     S(el)   - electronic entropy
     S(vib)  - vibrational entropy
     S(rot)  - rotational entropy
     S(trans)- translational entropy
The entropies will be listed as multiplied by the temperature to get
units of energy

Electronic entropy                ...      0.00065446 Eh      0.41 kcal/mol
Vibrational entropy               ...      0.01352398 Eh      8.49 kcal/mol
Rotational entropy                ...      0.01406837 Eh      8.83 kcal/mol
Translational entropy             ...      0.01926665 Eh     12.09 kcal/mol
-----------------------------------------------------------------------
Final entropy term                ...      0.04751346 Eh     29.82 kcal/mol

In case the symmetry of your molecule has not been determined correctly
or in case you have a reason to use a different symmetry number we print
out the resulting rotational entropy values for sn=1,12:

                             ****ORCA TERMINATED NORMALLY****
TOTAL RUN TIME: 0 days 1 hours 9 minutes 48 seconds 305 msec
