                         Program Version 6.0.0  -   RELEASE  -
|  1> !r2SCAN opt aug-cc-pVTZ d3 TightSCF SlowConv RIJCOSX defgrid2
|  2>
|  3> %pal
|  4> nprocs 8
|  5> end
|  6>
|  7> %scf
|  8> MaxIter 1500
|  9> end
| 10>
| 11> %maxcore 3500
| 12>
| 13> !CPCM
| 14> %cpcm smd true
| 15> SMDsolvent "MeCN"
| 16> surfacetype gepol_ses
| 17> rsolv 2.19
| 18> end
| 19>
| 20> * xyz 1 2
| 21> C           0.96002552011709     -1.32253975774944      0.00002107203161
| 22> C           2.30946577689281     -1.05292578484351     -0.00001183018851
| 23> C           2.75162476164071      0.28756052755572     -0.00002650301661
| 24> C           1.83902538005307      1.36187223575537     -0.00000118304244
| 25> C           0.48711647576379      1.10797066538425      0.00002893131122
| 26> C           0.02041417697925     -0.24724272024865      0.00003631726405
| 27> C          -1.36049677571781     -0.55035510408661      0.00004151636512
| 28> N          -2.24435922885682      0.43165315940707      0.00003462017491
| 29> O          -3.46568256477989     -0.02410885729296      0.00002059528734
| 30> H          -4.06414072403569      0.75247060999126      0.00003013023410
| 31> H          -1.71241527206750     -1.59215357045924      0.00004127844656
| 32> H          -0.24324441524782      1.92013568517355      0.00004228420146
| 33> H           2.20910910746605      2.39016696582870     -0.00001172730682
| 34> H           3.82614866589464      0.49606739820897     -0.00005739041351
| 35> H           3.03863533465800     -1.86708723654366     -0.00002808352063
| 36> H           0.59646668124012     -2.35410821608081      0.00003057217215
| 37> *
| 38>
| 39>                          ****END OF INPUT****
 Total Charge           Charge          ....    1
 Multiplicity           Mult            ....    2
 Number of Electrons    NEL             ....   63
Dispersion correction           -0.004704282
FINAL SINGLE POINT ENERGY      -400.594809504616
Dispersion correction             ... done (  0.1 sec)
Dispersion correction           -0.004713706
FINAL SINGLE POINT ENERGY      -400.596178364836
Dispersion correction             ... done (  0.1 sec)
Dispersion correction           -0.004715905
FINAL SINGLE POINT ENERGY      -400.596412582751
Dispersion correction             ... done (  0.1 sec)
Dispersion correction           -0.004715012
FINAL SINGLE POINT ENERGY      -400.596456632978
Dispersion correction             ... done (  0.1 sec)
Dispersion correction           -0.004714577
FINAL SINGLE POINT ENERGY      -400.596463741142
Dispersion correction             ... done (  0.1 sec)
                    ***********************HURRAY********************

CARTESIAN COORDINATES (ANGSTROEM)
---------------------------------
  C      0.952073   -1.312747    0.001710
  C      2.296936   -1.050770   -0.001804
  C      2.745645    0.283013   -0.002251
  C      1.840576    1.358651    0.000753
  C      0.493491    1.115055    0.003390
  C      0.024274   -0.234651    0.003578
  C     -1.351140   -0.545600    0.003166
  N     -2.231285    0.436570   -0.000344
  O     -3.477128   -0.057488   -0.005965
  H     -4.057008    0.730737   -0.006091
  H     -1.684405   -1.580924    0.004029
  H     -0.221686    1.925643    0.005690
  H      2.213894    2.373739    0.000374
  H      3.809650    0.483644   -0.004982
  H      3.015618   -1.858945   -0.004092
  H      0.578188   -2.328552    0.003029

 Multiplicity           Mult            ....    2
 Number of Electrons    NEL             ....   63
 Basis Dimension        Dim             ....  575

ORBITAL ENERGIES
----------------
                 SPIN UP ORBITALS
  NO   OCC          E(Eh)            E(eV)
   0   1.0000     -19.084910      -519.3268
   1   1.0000     -14.292809      -388.9271
   2   1.0000     -10.131248      -275.6853
   3   1.0000     -10.117089      -275.3000
   4   1.0000     -10.100577      -274.8507
   5   1.0000     -10.090352      -274.5724
   6   1.0000     -10.088674      -274.5268
   7   1.0000     -10.078028      -274.2371
   8   1.0000     -10.075285      -274.1624
   9   1.0000      -1.146015       -31.1846
  10   1.0000      -0.903634       -24.5891
  11   1.0000      -0.861468       -23.4417
  12   1.0000      -0.772563       -21.0225
  13   1.0000      -0.760369       -20.6907
  14   1.0000      -0.663345       -18.0505
  15   1.0000      -0.618946       -16.8424
  16   1.0000      -0.585147       -15.9227
  17   1.0000      -0.552592       -15.0368
  18   1.0000      -0.524794       -14.2804
  19   1.0000      -0.490704       -13.3527
  20   1.0000      -0.474488       -12.9115
  21   1.0000      -0.465225       -12.6594
  22   1.0000      -0.444858       -12.1052
  23   1.0000      -0.427789       -11.6407
  24   1.0000      -0.421296       -11.4641
  25   1.0000      -0.402418       -10.9504
  26   1.0000      -0.359111        -9.7719
  27   1.0000      -0.347544        -9.4571
  28   1.0000      -0.332701        -9.0532
  29   1.0000      -0.309449        -8.4205
  30   1.0000      -0.282877        -7.6975
  31   1.0000      -0.269173        -7.3246
  32   0.0000      -0.140059        -3.8112
  33   0.0000      -0.070486        -1.9180
  34   0.0000      -0.038590        -1.0501
  35   0.0000       0.001167         0.0318
  36   0.0000       0.009506         0.2587

                 SPIN DOWN ORBITALS
  NO   OCC          E(Eh)            E(eV)
   0   1.0000     -19.077686      -519.1302
   1   1.0000     -14.284961      -388.7135
   2   1.0000     -10.131631      -275.6957
   3   1.0000     -10.114076      -275.2180
   4   1.0000     -10.095636      -274.7162
   5   1.0000     -10.088320      -274.5171
   6   1.0000     -10.087515      -274.4952
   7   1.0000     -10.078551      -274.2513
   8   1.0000     -10.076405      -274.1929
   9   1.0000      -1.134009       -30.8580
  10   1.0000      -0.893476       -24.3127
  11   1.0000      -0.852513       -23.1981
  12   1.0000      -0.763311       -20.7708
  13   1.0000      -0.756739       -20.5919
  14   1.0000      -0.657525       -17.8922
  15   1.0000      -0.616431       -16.7739
  16   1.0000      -0.580591       -15.7987
  17   1.0000      -0.547851       -14.9078
  18   1.0000      -0.522735       -14.2244
  19   1.0000      -0.487083       -13.2542
  20   1.0000      -0.462697       -12.5906
  21   1.0000      -0.442497       -12.0409
  22   1.0000      -0.441765       -12.0210
  23   1.0000      -0.427583       -11.6351
  24   1.0000      -0.419314       -11.4101
  25   1.0000      -0.383992       -10.4490
  26   1.0000      -0.358417        -9.7530
  27   1.0000      -0.345821        -9.4103
  28   1.0000      -0.311594        -8.4789
  29   1.0000      -0.302317        -8.2265
  30   1.0000      -0.278611        -7.5814
  31   0.0000      -0.229649        -6.2491
  32   0.0000      -0.112213        -3.0535
  33   0.0000      -0.062891        -1.7113
  34   0.0000      -0.018309        -0.4982
  35   0.0000       0.002473         0.0673

MULLIKEN ATOMIC CHARGES AND SPIN POPULATIONS
--------------------------------------------
   0 C :   -0.745715    0.050826
   1 C :   -0.516719   -0.040784
   2 C :   -0.090918    0.266761
   3 C :   -0.702378   -0.095783
   4 C :   -0.593304    0.118868
   5 C :    1.791661    0.212535
   6 C :    0.152375   -0.054027
   7 N :   -0.386633    0.297921
   8 O :   -0.178930    0.221517
   9 H :    0.215454   -0.012543
  10 H :    0.440018   -0.005011
  11 H :    0.076962    0.014612
  12 H :    0.539713   -0.008066
  13 H :    0.461770    0.023007
  14 H :    0.518842   -0.001786
  15 H :    0.017803    0.011955
Sum of atomic charges         :    1.0000000

LOEWDIN ATOMIC CHARGES AND SPIN POPULATIONS
-------------------------------------------
   0 C :    0.273363    0.056738
   1 C :    0.276642    0.040438
   2 C :    0.291324    0.140655
   3 C :    0.271699    0.029445
   4 C :    0.266587    0.074471
   5 C :   -0.103275    0.114602
   6 C :    0.086631    0.058437
   7 N :    0.220403    0.232233
   8 O :    0.754645    0.199629
   9 H :   -0.421508    0.013216
  10 H :   -0.149978   -0.004255
  11 H :   -0.170857    0.010462
  12 H :   -0.154762   -0.005029
  13 H :   -0.141501    0.032670
  14 H :   -0.152913   -0.001065
  15 H :   -0.146500    0.007352

  Mayer bond orders larger than 0.100000
B(  0-C ,  1-C ) :   1.2296 B(  0-C ,  4-C ) :  -0.4298 B(  0-C , 11-H ) :   0.1202
B(  0-C , 14-H ) :  -0.1686 B(  0-C , 15-H ) :   1.6016 B(  1-C ,  2-C ) :   1.0794
B(  1-C ,  3-C ) :   0.1233 B(  1-C ,  6-C ) :   0.1170 B(  1-C , 11-H ) :  -0.1063
B(  1-C , 14-H ) :   0.5097 B(  1-C , 15-H ) :  -0.1263 B(  2-C ,  3-C ) :   1.0329
B(  2-C ,  4-C ) :  -0.1226 B(  2-C ,  5-C ) :  -0.2259 B(  2-C ,  6-C ) :   0.1452
B(  2-C , 13-H ) :   0.6241 B(  3-C ,  4-C ) :   1.2590 B(  3-C , 12-H ) :   0.4666
B(  4-C ,  5-C ) :   0.2760 B(  4-C ,  6-C ) :   0.1397 B(  4-C , 11-H ) :   1.2369
B(  4-C , 15-H ) :   0.1318 B(  5-C ,  6-C ) :   0.2629 B(  5-C ,  8-O ) :   0.1148
B(  5-C , 11-H ) :  -0.1145 B(  5-C , 14-H ) :   0.1083 B(  5-C , 15-H ) :  -0.1647
B(  6-C ,  7-N ) :   0.7132 B(  6-C , 10-H ) :   0.5606 B(  6-C , 11-H ) :  -0.1001
B(  6-C , 15-H ) :  -0.1512 B(  7-N ,  8-O ) :   0.8262 B(  8-O ,  9-H ) :   0.9821
B( 11-H , 15-H ) :   0.1494

Dispersion correction           -0.004714536
FINAL SINGLE POINT ENERGY      -400.596464980712

DIPOLE MOMENT
-------------

Method             : SCF
Type of density    : Electron Density
Multiplicity       :   2
Irrep              :   0
Energy             :  -400.5917504446013595 Eh
Relativity type    :
Basis              : AO
                                X                 Y                 Z
Electronic contribution:     -3.283114317       0.150093417       0.002414983
Nuclear contribution   :      3.315756947      -0.253116683      -0.002023570
                        -----------------------------------------
Total Dipole Moment    :      0.032642630      -0.103023266       0.000391413
                        -----------------------------------------
Magnitude (a.u.)       :      0.108071679
Magnitude (Debye)      :      0.274696378

Rotational constants in cm-1:             0.167493             0.031097             0.026228
Rotational constants in MHz :          5021.314547           932.278935           786.295357

                             ****ORCA TERMINATED NORMALLY****
TOTAL RUN TIME: 0 days 0 hours 14 minutes 5 seconds 92 msec
