                         Program Version 6.0.0  -   RELEASE  -
|  1> !PBE0 opt def2-SV(p) d3 TightSCF SlowConv RIJCOSX defgrid2
|  2>
|  3> %pal
|  4> nprocs 8
|  5> end
|  6>
|  7> %scf
|  8> MaxIter 1500
|  9> end
| 10>
| 11> %maxcore 3500
| 12>
| 13> !CPCM
| 14> %cpcm smd true
| 15> SMDsolvent "MeCN"
| 16> surfacetype gepol_ses
| 17> rsolv 2.19
| 18> end
| 19>
| 20> * xyz 0 1
| 21> C           2.43031351008729     -0.70749139029856      0.00001403239272
| 22> C           2.43032444825569      0.70745716976960      0.00001780057511
| 23> C           1.24225650957686      1.40066986227340      0.00001298600543
| 24> C           0.00000747832604      0.71479447718917      0.00000542687051
| 25> C          -1.24223111805275      1.40068893561610      0.00000324875952
| 26> C          -2.43030983452578      0.70749421287076     -0.00000358520312
| 27> C          -2.43032103578901     -0.70745426001962     -0.00000960120256
| 28> C          -1.24225352108494     -1.40066808823521     -0.00000641420954
| 29> C          -0.00000405709778     -0.71479302978643      0.00000150500237
| 30> C           1.24223524877496     -1.40068686163162      0.00000460886950
| 31> H           1.23824372924118     -2.49527550154318      0.00000243863973
| 32> H          -1.23827753101703     -2.49525698617010     -0.00000852848414
| 33> H          -3.38175156931066     -1.24754932619836     -0.00001429910497
| 34> H          -3.38173131512848      1.24760412689582     -0.00000496639229
| 35> H          -1.23823830440863      2.49527781567030      0.00000665226192
| 36> H           1.23827983240145      2.49525951167016      0.00001366019695
| 37> H           3.38175416757919      1.24755290950869      0.00002330946105
| 38> H           3.38173466217241     -1.24760147758094      0.00001812556182
| 39> *
| 40>
| 41>                          ****END OF INPUT****
 Total Charge           Charge          ....    0
 Multiplicity           Mult            ....    1
 Number of Electrons    NEL             ....   68
Dispersion correction           -0.018489409
FINAL SINGLE POINT ENERGY      -385.171787420165
Dispersion correction             ... done (  0.1 sec)
Dispersion correction           -0.018481158
FINAL SINGLE POINT ENERGY      -385.171810532301
Dispersion correction             ... done (  0.1 sec)
                    ***********************HURRAY********************

CARTESIAN COORDINATES (ANGSTROEM)
---------------------------------
  C      2.431586   -0.708077   -0.000207
  C      2.431599    0.708042   -0.000176
  C      1.243009    1.402741   -0.000051
  C      0.000007    0.715605    0.000007
  C     -1.242984    1.402760    0.000066
  C     -2.431585    0.708079    0.000190
  C     -2.431594   -0.708040    0.000213
  C     -1.243004   -1.402738    0.000085
  C     -0.000004   -0.715601    0.000001
  C      1.242986   -1.402757   -0.000087
  H      1.239852   -2.497430    0.000058
  H     -1.239885   -2.497411   -0.000067
  H     -3.382999   -1.248558   -0.000136
  H     -3.382982    1.248610   -0.000177
  H     -1.239851    2.497434   -0.000101
  H      1.239894    2.497415    0.000122
  H      3.383004    1.248557    0.000195
  H      3.382983   -1.248609    0.000142

 Multiplicity           Mult            ....    1
 Number of Electrons    NEL             ....   68
 Basis Dimension        Dim             ....  156

ORBITAL ENERGIES
----------------

  NO   OCC          E(Eh)            E(eV)
   0   2.0000     -10.249763      -278.9102
   1   2.0000     -10.249480      -278.9025
   2   2.0000     -10.238507      -278.6040
   3   2.0000     -10.238505      -278.6039
   4   2.0000     -10.238491      -278.6035
   5   2.0000     -10.238461      -278.6027
   6   2.0000     -10.237811      -278.5850
   7   2.0000     -10.237791      -278.5844
   8   2.0000     -10.237523      -278.5772
   9   2.0000     -10.237513      -278.5769
  10   2.0000      -0.897782       -24.4299
  11   2.0000      -0.842077       -22.9141
  12   2.0000      -0.792121       -21.5547
  13   2.0000      -0.758742       -20.6464
  14   2.0000      -0.735146       -20.0043
  15   2.0000      -0.640741       -17.4354
  16   2.0000      -0.627013       -17.0619
  17   2.0000      -0.611412       -16.6374
  18   2.0000      -0.530077       -14.4241
  19   2.0000      -0.520417       -14.1613
  20   2.0000      -0.510098       -13.8805
  21   2.0000      -0.457951       -12.4615
  22   2.0000      -0.457572       -12.4512
  23   2.0000      -0.433086       -11.7849
  24   2.0000      -0.430072       -11.7029
  25   2.0000      -0.414891       -11.2898
  26   2.0000      -0.410760       -11.1773
  27   2.0000      -0.381181       -10.3725
  28   2.0000      -0.351488        -9.5645
  29   2.0000      -0.349002        -9.4968
  30   2.0000      -0.342714        -9.3257
  31   2.0000      -0.306098        -8.3293
  32   2.0000      -0.263777        -7.1777
  33   2.0000      -0.234303        -6.3757
  34   0.0000      -0.044121        -1.2006
  35   0.0000      -0.015287        -0.4160
  36   0.0000       0.025965         0.7065
  37   0.0000       0.083129         2.2621
  38   0.0000       0.098830         2.6893

MULLIKEN ATOMIC CHARGES
-----------------------
   0 C :   -0.113891
   1 C :   -0.113888
   2 C :   -0.155672
   3 C :    0.054936
   4 C :   -0.155672
   5 C :   -0.113886
   6 C :   -0.113894
   7 C :   -0.155669
   8 C :    0.054934
   9 C :   -0.155671
  10 H :    0.115819
  11 H :    0.115819
  12 H :    0.126274
  13 H :    0.126275
  14 H :    0.115819
  15 H :    0.115819
  16 H :    0.126274
  17 H :    0.126274
Sum of atomic charges:    0.0000000

LOEWDIN ATOMIC CHARGES
----------------------
   0 C :   -0.139192
   1 C :   -0.139191
   2 C :   -0.125419
   3 C :   -0.043976
   4 C :   -0.125419
   5 C :   -0.139191
   6 C :   -0.139192
   7 C :   -0.125419
   8 C :   -0.043977
   9 C :   -0.125419
  10 H :    0.143401
  11 H :    0.143401
  12 H :    0.143198
  13 H :    0.143198
  14 H :    0.143401
  15 H :    0.143401
  16 H :    0.143198
  17 H :    0.143198

  Mayer bond orders larger than 0.100000
B(  0-C ,  1-C ) :   1.2475 B(  0-C ,  9-C ) :   1.4913 B(  0-C , 17-H ) :   0.9623
B(  1-C ,  2-C ) :   1.4913 B(  1-C , 16-H ) :   0.9623 B(  2-C ,  3-C ) :   1.2436
B(  2-C , 15-H ) :   0.9648 B(  3-C ,  4-C ) :   1.2436 B(  3-C ,  8-C ) :   1.2508
B(  4-C ,  5-C ) :   1.4913 B(  4-C , 14-H ) :   0.9648 B(  5-C ,  6-C ) :   1.2475
B(  5-C , 13-H ) :   0.9623 B(  6-C ,  7-C ) :   1.4913 B(  6-C , 12-H ) :   0.9623
B(  7-C ,  8-C ) :   1.2436 B(  7-C , 11-H ) :   0.9648 B(  8-C ,  9-C ) :   1.2436
B(  9-C , 10-H ) :   0.9648

Dispersion correction           -0.018479850
FINAL SINGLE POINT ENERGY      -385.171812424654

DIPOLE MOMENT
-------------

Method             : SCF
Type of density    : Electron Density
Multiplicity       :   1
Irrep              :   0
Energy             :  -385.1533325751227039 Eh
Relativity type    :
Basis              : AO
                                X                 Y                 Z
Electronic contribution:     -0.000001242       0.000004734      -0.000001547
Nuclear contribution   :      0.000002201      -0.000003212       0.000002230
                        -----------------------------------------
Total Dipole Moment    :      0.000000958       0.000001522       0.000000683
                        -----------------------------------------
Magnitude (a.u.)       :      0.000001924
Magnitude (Debye)      :      0.000004890

Rotational constants in cm-1:             0.103830             0.041052             0.029420
Rotational constants in MHz :          3112.741382          1230.713158           881.991915

                             ****ORCA TERMINATED NORMALLY****
TOTAL RUN TIME: 0 days 0 hours 2 minutes 37 seconds 69 msec
