                         Program Version 6.0.0  -   RELEASE  -
|  1> !r2SCAN aug-cc-pVTZ d3 TightSCF SlowConv RIJCOSX defgrid2
|  2>
|  3> %pal
|  4> nprocs 4
|  5> end
|  6>
|  7> %scf
|  8> MaxIter 1500
|  9> end
| 10>
| 11> %maxcore 3000
| 12>
| 13> !CPCM
| 14> %cpcm smd true
| 15> SMDsolvent "MeCN"
| 16> surfacetype gepol_ses
| 17> rsolv 2.19
| 18> end
| 19>
| 20> * xyz 1 2
| 21> C          -0.69806914174773     -1.08130758385803      0.00000478073461
| 22> C          -1.29995911913199      0.21220975823502      0.00000712364871
| 23> C          -0.48713495449795      1.39007645246692     -0.00001560397811
| 24> C           0.87407248196079      1.28097563070640     -0.00003015609287
| 25> C           1.48961473063931     -0.00988444370075     -0.00003464832734
| 26> C           0.66713129411178     -1.18242862965134     -0.00001675195059
| 27> H           1.14787115207094     -2.16374838611022     -0.00001833432844
| 28> C           2.87923367476782     -0.13303827989769     -0.00003947759998
| 29> C           4.09817372516796     -0.24492334399421     -0.00000244744274
| 30> H           5.17420938419188     -0.34031758843355     -0.00000256865577
| 31> H           1.50568477881681      2.17231925078041     -0.00004562485067
| 32> H          -0.99220253079888      2.35905562684180     -0.00001378344560
| 33> O          -2.58101948918323      0.42008257874155      0.00003691245038
| 34> C          -3.53711041258472     -0.64087278516494      0.00007811011347
| 35> H          -4.51842922650600     -0.15013878054896      0.00011237958636
| 36> H          -3.42139067434806     -1.25399713854605     -0.90847216906212
| 37> H          -3.42131652654994     -1.25398175148381      0.90862972609483
| 38> H          -1.31361454637877     -1.98259848638256      0.00002453310588
| 39> *
| 40>
| 41>                          ****END OF INPUT****

CARTESIAN COORDINATES (ANGSTROEM)
---------------------------------
  C     -0.698069   -1.081308    0.000005
  C     -1.299959    0.212210    0.000007
  C     -0.487135    1.390076   -0.000016
  C      0.874072    1.280976   -0.000030
  C      1.489615   -0.009884   -0.000035
  C      0.667131   -1.182429   -0.000017
  H      1.147871   -2.163748   -0.000018
  C      2.879234   -0.133038   -0.000039
  C      4.098174   -0.244923   -0.000002
  H      5.174209   -0.340318   -0.000003
  H      1.505685    2.172319   -0.000046
  H     -0.992203    2.359056   -0.000014
  O     -2.581019    0.420083    0.000037
  C     -3.537110   -0.640873    0.000078
  H     -4.518429   -0.150139    0.000112
  H     -3.421391   -1.253997   -0.908472
  H     -3.421317   -1.253982    0.908630
  H     -1.313615   -1.982598    0.000025

 Total Charge           Charge          ....    1
 Multiplicity           Mult            ....    2
 Number of Electrons    NEL             ....   69
 Basis Dimension        Dim             ....  644

ORBITAL ENERGIES
----------------
                 SPIN UP ORBITALS
  NO   OCC          E(Eh)            E(eV)
   0   1.0000     -19.066981      -518.8389
   1   1.0000     -10.173392      -276.8321
   2   1.0000     -10.129408      -275.6352
   3   1.0000     -10.106522      -275.0124
   4   1.0000     -10.095394      -274.7096
   5   1.0000     -10.093228      -274.6507
   6   1.0000     -10.090584      -274.5787
   7   1.0000     -10.088866      -274.5320
   8   1.0000     -10.088813      -274.5306
   9   1.0000     -10.087750      -274.5016
  10   1.0000      -1.114877       -30.3373
  11   1.0000      -0.877525       -23.8787
  12   1.0000      -0.802966       -21.8498
  13   1.0000      -0.769563       -20.9409
  14   1.0000      -0.751040       -20.4368
  15   1.0000      -0.708275       -19.2732
  16   1.0000      -0.630517       -17.1572
  17   1.0000      -0.613769       -16.7015
  18   1.0000      -0.555127       -15.1058
  19   1.0000      -0.538832       -14.6624
  20   1.0000      -0.504375       -13.7247
  21   1.0000      -0.501774       -13.6540
  22   1.0000      -0.489271       -13.3137
  23   1.0000      -0.445639       -12.1264
  24   1.0000      -0.433139       -11.7863
  25   1.0000      -0.421759       -11.4766
  26   1.0000      -0.407253       -11.0819
  27   1.0000      -0.403877       -10.9900
  28   1.0000      -0.368902       -10.0383
  29   1.0000      -0.368625       -10.0308
  30   1.0000      -0.333045        -9.0626
  31   1.0000      -0.316123        -8.6022
  32   1.0000      -0.294641        -8.0176
  33   1.0000      -0.288561        -7.8521
  34   1.0000      -0.252404        -6.8683
  35   0.0000      -0.106528        -2.8988
  36   0.0000      -0.077040        -2.0964
  37   0.0000      -0.023971        -0.6523
  38   0.0000       0.002947         0.0802
  39   0.0000       0.006940         0.1888

                 SPIN DOWN ORBITALS
  NO   OCC          E(Eh)            E(eV)
   0   1.0000     -19.060977      -518.6755
   1   1.0000     -10.171091      -276.7695
   2   1.0000     -10.123956      -275.4869
   3   1.0000     -10.106690      -275.0170
   4   1.0000     -10.095744      -274.7192
   5   1.0000     -10.091624      -274.6070
   6   1.0000     -10.090050      -274.5642
   7   1.0000     -10.087321      -274.4900
   8   1.0000     -10.086716      -274.4735
   9   1.0000     -10.086379      -274.4643
  10   1.0000      -1.106091       -30.0983
  11   1.0000      -0.870471       -23.6867
  12   1.0000      -0.794838       -21.6286
  13   1.0000      -0.767277       -20.8787
  14   1.0000      -0.744003       -20.2453
  15   1.0000      -0.699645       -19.0383
  16   1.0000      -0.626196       -17.0397
  17   1.0000      -0.609994       -16.5988
  18   1.0000      -0.552245       -15.0273
  19   1.0000      -0.535689       -14.5768
  20   1.0000      -0.502614       -13.6768
  21   1.0000      -0.498066       -13.5531
  22   1.0000      -0.473520       -12.8851
  23   1.0000      -0.443166       -12.0592
  24   1.0000      -0.432473       -11.7682
  25   1.0000      -0.420047       -11.4301
  26   1.0000      -0.402943       -10.9646
  27   1.0000      -0.392290       -10.6748
  28   1.0000      -0.367568       -10.0020
  29   1.0000      -0.353170        -9.6102
  30   1.0000      -0.330022        -8.9804
  31   1.0000      -0.297426        -8.0934
  32   1.0000      -0.292078        -7.9479
  33   1.0000      -0.283004        -7.7009
  34   0.0000      -0.215279        -5.8580
  35   0.0000      -0.081926        -2.2293
  36   0.0000      -0.067087        -1.8255
  37   0.0000      -0.023405        -0.6369
  38   0.0000       0.003868         0.1052

MULLIKEN ATOMIC CHARGES AND SPIN POPULATIONS
--------------------------------------------
   0 C :   -0.126327    0.091787
   1 C :    1.438506    0.115571
   2 C :   -0.727965    0.125860
   3 C :   -1.111637   -0.115595
   4 C :    1.587725    0.412835
   5 C :   -1.125565   -0.058528
   6 H :   -0.269102   -0.002761
   7 C :    1.266839   -0.129286
   8 C :   -0.714021    0.343436
   9 H :    0.328592    0.013465
  10 H :   -0.249995   -0.007927
  11 H :    0.597519    0.009491
  12 O :   -0.640541    0.181143
  13 C :   -0.600611   -0.016399
  14 H :    0.237978   -0.001390
  15 H :    0.290472    0.010411
  16 H :    0.290204    0.010421
  17 H :    0.527928    0.017466
Sum of atomic charges         :    1.0000000

LOEWDIN ATOMIC CHARGES AND SPIN POPULATIONS
-------------------------------------------
   0 C :    0.284390    0.072026
   1 C :   -0.332182    0.123416
   2 C :    0.278214    0.077864
   3 C :    0.255295    0.026537
   4 C :   -0.157918    0.138425
   5 C :    0.263472    0.043489
   6 H :   -0.135916   -0.000945
   7 C :    0.055101    0.072401
   8 C :    0.506043    0.203827
   9 H :   -0.233449    0.046434
  10 H :   -0.138650   -0.005127
  11 H :   -0.142191    0.011983
  12 O :    0.656494    0.150540
  13 C :    0.439245    0.018118
  14 H :   -0.154606   -0.000296
  15 H :   -0.143732    0.005431
  16 H :   -0.143679    0.005432
  17 H :   -0.155933    0.010444

  Mayer bond orders larger than 0.100000
B(  0-C ,  1-C ) :   0.7833 B(  0-C ,  2-C ) :   0.1650 B(  0-C ,  4-C ) :   0.7409
B(  0-C ,  5-C ) :   1.1203 B(  0-C ,  6-H ) :  -0.1656 B(  0-C ,  7-C ) :  -0.2386
B(  0-C ,  8-C ) :  -0.1099 B(  0-C , 10-H ) :  -0.1218 B(  0-C , 11-H ) :  -0.1112
B(  0-C , 17-H ) :   0.2967 B(  1-C ,  2-C ) :   0.6123 B(  1-C ,  3-C ) :  -0.5137
B(  1-C ,  4-C ) :  -0.2277 B(  1-C ,  5-C ) :  -0.5134 B(  1-C ,  7-C ) :   0.3192
B(  1-C ,  8-C ) :   0.1083 B(  1-C , 11-H ) :   0.1780 B(  1-C , 12-O ) :   0.3442
B(  1-C , 17-H ) :   0.1515 B(  2-C ,  3-C ) :   1.3733 B(  2-C ,  4-C ) :   0.5906
B(  2-C ,  7-C ) :  -0.1263 B(  2-C , 11-H ) :   0.2092 B(  2-C , 12-O ) :   0.3464
B(  3-C ,  4-C ) :   0.1076 B(  3-C ,  5-C ) :  -0.5912 B(  3-C ,  6-H ) :   0.2307
B(  3-C ,  7-C ) :   0.4147 B(  3-C , 10-H ) :   2.0393 B(  4-C ,  5-C ) :   0.1497
B(  4-C ,  6-H ) :  -0.1106 B(  4-C ,  8-C ) :   0.7260 B(  4-C , 12-O ) :   0.1214
B(  5-C ,  6-H ) :   2.0906 B(  5-C ,  7-C ) :   0.3392 B(  5-C ,  8-C ) :  -0.1301
B(  5-C , 10-H ) :   0.1955 B(  6-H ,  7-C ) :  -0.3075 B(  6-H ,  8-C ) :  -0.3232
B(  6-H , 10-H ) :   0.4235 B(  7-C ,  8-C ) :   1.6809 B(  7-C ,  9-H ) :  -0.2744
B(  7-C , 10-H ) :  -0.3932 B(  7-C , 11-H ) :   0.1116 B(  7-C , 17-H ) :   0.1250
B(  8-C ,  9-H ) :   1.2350 B(  8-C , 10-H ) :  -0.3203 B(  8-C , 11-H ) :   0.1497
B(  8-C , 17-H ) :   0.1909 B( 10-H , 11-H ) :  -0.1074 B( 12-O , 13-C ) :   0.9765
B( 13-C , 14-H ) :   0.9698 B( 13-C , 15-H ) :   0.8864 B( 13-C , 16-H ) :   0.8868

Dispersion correction           -0.005495245
FINAL SINGLE POINT ENERGY      -422.635520816050

DIPOLE MOMENT
-------------

Method             : SCF
Type of density    : Electron Density
Multiplicity       :   2
Irrep              :   0
Energy             :  -422.6300255706772191 Eh
Relativity type    :
Basis              : AO
                                X                 Y                 Z
Electronic contribution:      5.195394477       1.747415936       0.000015627
Nuclear contribution   :     -5.555943012      -2.398496713       0.000189114
                        -----------------------------------------
Total Dipole Moment    :     -0.360548535      -0.651080777       0.000204741
                        -----------------------------------------
Magnitude (a.u.)       :      0.744245568
Magnitude (Debye)      :      1.891721897

Rotational constants in cm-1:             0.157571             0.023827             0.020782
Rotational constants in MHz :          4723.848433           714.307245           623.028150

                             ****ORCA TERMINATED NORMALLY****
TOTAL RUN TIME: 0 days 0 hours 3 minutes 43 seconds 420 msec
