                         Program Version 6.0.0  -   RELEASE  -
|  1> !TPSSh aug-cc-pVTZ d3 TightSCF SlowConv RIJCOSX defgrid2
|  2>
|  3> %pal
|  4> nprocs 15
|  5> end
|  6>
|  7> %scf
|  8> MaxIter 1500
|  9> end
| 10>
| 11> %maxcore 3500
| 12>
| 13> !CPCM
| 14> %cpcm smd true
| 15> SMDsolvent "WATER"
| 16> surfacetype gepol_ses
| 17> rsolv 1.40
| 18> end
| 19>
| 20> * xyz 1 1
| 21> O           1.69028117689558      3.37274922443931      1.11633962460164
| 22> N           2.64508834536190      2.69181678814397      1.22297469266331
| 23> C           3.79364432352713      2.91279474875315      0.25576222257425
| 24> C           4.41690502024746      1.55735729533319     -0.09476254953002
| 25> C           4.67733661079369      0.66452443423856      1.10383738520721
| 26> C           3.37045256120440      0.39731336490166      1.83970504256275
| 27> C           2.66799498342616      1.66587031114268      2.34113152200502
| 28> C           4.78664458888588      3.85507766004816      0.96313769772216
| 29> C           3.22421911588956      3.59522010625645     -0.98009687677033
| 30> C           3.40931008600286      2.31997828440322      3.52226317122572
| 31> C           1.22422162814495      1.38082655937204      2.72997366883812
| 32> H           5.34884078835654      1.75906997936546     -0.64631285848774
| 33> H           3.75796437018198      1.02598628901689     -0.80296027442862
| 34> H           5.40042447879038      1.13288543625525      1.79577627089786
| 35> H           3.53775872621371     -0.24608048611092      2.71808872702049
| 36> H           2.68001252116369     -0.14819003704925      1.17146867751790
| 37> H           4.27985954283953      4.75359746707821      1.35111103609992
| 38> H           5.34884375946348      3.37256256672533      1.77397975191263
| 39> H           5.50897207558620      4.17777907092180      0.19549951134991
| 40> H           2.86192360014995      4.61263606074173     -0.76851470910027
| 41> H           2.40394906868267      3.00772813007802     -1.42457373280581
| 42> H           4.03437736873618      3.66442610394421     -1.72341542384058
| 43> H           2.99610733981189      3.31548991868264      3.75198408999862
| 44> H           4.49382233017226      2.39980342242512      3.36909605423605
| 45> H           3.23745517084425      1.67163833982347      4.39703137060060
| 46> H           0.73408005868470      2.25325337031983      3.18793394277703
| 47> H           0.62783916292596      1.05008904763585      1.86346734061458
| 48> H           1.23475255281246      0.56405590576186      3.46909994981412
| 49> C           5.33166078892950     -0.63197308222401      0.65212318052779
| 50> O           5.67009393201701     -0.85879399844318     -0.47432905828358
| 51> O           5.48410818268575     -1.47484874010900      1.67290341721619
| 52> H           5.91800326157221     -2.28673051887174      1.34333539126303
| 53> *
| 54>
| 55>                          ****END OF INPUT****

CARTESIAN COORDINATES (ANGSTROEM)
---------------------------------
  O      1.690281    3.372749    1.116340
  N      2.645088    2.691817    1.222975
  C      3.793644    2.912795    0.255762
  C      4.416905    1.557357   -0.094763
  C      4.677337    0.664524    1.103837
  C      3.370453    0.397313    1.839705
  C      2.667995    1.665870    2.341132
  C      4.786645    3.855078    0.963138
  C      3.224219    3.595220   -0.980097
  C      3.409310    2.319978    3.522263
  C      1.224222    1.380827    2.729974
  H      5.348841    1.759070   -0.646313
  H      3.757964    1.025986   -0.802960
  H      5.400424    1.132885    1.795776
  H      3.537759   -0.246080    2.718089
  H      2.680013   -0.148190    1.171469
  H      4.279860    4.753597    1.351111
  H      5.348844    3.372563    1.773980
  H      5.508972    4.177779    0.195500
  H      2.861924    4.612636   -0.768515
  H      2.403949    3.007728   -1.424574
  H      4.034377    3.664426   -1.723415
  H      2.996107    3.315490    3.751984
  H      4.493822    2.399803    3.369096
  H      3.237455    1.671638    4.397031
  H      0.734080    2.253253    3.187934
  H      0.627839    1.050089    1.863467
  H      1.234753    0.564056    3.469100
  C      5.331661   -0.631973    0.652123
  O      5.670094   -0.858794   -0.474329
  O      5.484108   -1.474849    1.672903
  H      5.918003   -2.286731    1.343335

 Total Charge           Charge          ....    1
 Multiplicity           Mult            ....    1
 Number of Electrons    NEL             ....  108
 Basis Dimension        Dim             .... 1058

ORBITAL ENERGIES
----------------

  NO   OCC          E(Eh)            E(eV)
   0   2.0000     -19.187506      -522.1186
   1   2.0000     -19.109961      -520.0085
   2   2.0000     -19.059951      -518.6476
   3   2.0000     -14.482872      -394.0990
   4   2.0000     -10.255576      -279.0684
   5   2.0000     -10.209560      -277.8163
   6   2.0000     -10.208846      -277.7968
   7   2.0000     -10.149570      -276.1838
   8   2.0000     -10.142702      -275.9969
   9   2.0000     -10.138321      -275.8777
  10   2.0000     -10.134364      -275.7701
  11   2.0000     -10.134097      -275.7628
  12   2.0000     -10.123936      -275.4863
  13   2.0000     -10.123444      -275.4729
  14   2.0000      -1.242868       -33.8202
  15   2.0000      -1.100276       -29.9400
  16   2.0000      -1.015357       -27.6293
  17   2.0000      -0.905703       -24.6454
  18   2.0000      -0.841187       -22.8899
  19   2.0000      -0.800502       -21.7828
  20   2.0000      -0.739369       -20.1192
  21   2.0000      -0.700877       -19.0718
  22   2.0000      -0.691687       -18.8218
  23   2.0000      -0.689558       -18.7638
  24   2.0000      -0.661478       -17.9997
  25   2.0000      -0.636138       -17.3102
  26   2.0000      -0.585125       -15.9221
  27   2.0000      -0.570014       -15.5109
  28   2.0000      -0.540943       -14.7198
  29   2.0000      -0.516592       -14.0572
  30   2.0000      -0.513409       -13.9706
  31   2.0000      -0.494132       -13.4460
  32   2.0000      -0.485474       -13.2104
  33   2.0000      -0.462572       -12.5872
  34   2.0000      -0.447995       -12.1906
  35   2.0000      -0.438078       -11.9207
  36   2.0000      -0.433300       -11.7907
  37   2.0000      -0.426008       -11.5923
  38   2.0000      -0.412797       -11.2328
  39   2.0000      -0.405678       -11.0391
  40   2.0000      -0.403985       -10.9930
  41   2.0000      -0.391417       -10.6510
  42   2.0000      -0.384715       -10.4686
  43   2.0000      -0.378292       -10.2938
  44   2.0000      -0.371289       -10.1033
  45   2.0000      -0.367074        -9.9886
  46   2.0000      -0.357597        -9.7307
  47   2.0000      -0.349638        -9.5141
  48   2.0000      -0.344864        -9.3842
  49   2.0000      -0.342537        -9.3209
  50   2.0000      -0.331393        -9.0177
  51   2.0000      -0.322299        -8.7702
  52   2.0000      -0.309528        -8.4227
  53   2.0000      -0.278553        -7.5798
  54   0.0000      -0.176669        -4.8074
  55   0.0000      -0.023549        -0.6408
  56   0.0000      -0.006647        -0.1809
  57   0.0000       0.002726         0.0742
  58   0.0000       0.007329         0.1994

MULLIKEN ATOMIC CHARGES
-----------------------
   0 O :   -0.985211
   1 N :    0.783681
   2 C :    1.372136
   3 C :    0.039591
   4 C :    1.042566
   5 C :   -0.314830
   6 C :    1.552871
   7 C :   -0.392160
   8 C :   -0.723141
   9 C :   -0.380863
  10 C :   -0.727037
  11 H :    0.212375
  12 H :   -0.015224
  13 H :    0.088138
  14 H :    0.034035
  15 H :    0.084745
  16 H :    0.041966
  17 H :    0.158686
  18 H :   -0.159455
  19 H :    0.040126
  20 H :    0.085958
  21 H :   -0.003132
  22 H :    0.039573
  23 H :    0.131909
  24 H :   -0.156219
  25 H :    0.047626
  26 H :    0.092061
  27 H :   -0.024352
  28 C :    0.374881
  29 O :   -1.087673
  30 O :   -0.508879
  31 H :    0.255253
Sum of atomic charges:    1.0000000

LOEWDIN ATOMIC CHARGES
----------------------
   0 O :    0.655815
   1 N :    0.010096
   2 C :   -0.350723
   3 C :    0.302235
   4 C :   -0.020049
   5 C :    0.323314
   6 C :   -0.350603
   7 C :    0.641324
   8 C :    0.595295
   9 C :    0.640929
  10 C :    0.595586
  11 H :   -0.110599
  12 H :   -0.113988
  13 H :   -0.124979
  14 H :   -0.117042
  15 H :   -0.102550
  16 H :   -0.122644
  17 H :   -0.167166
  18 H :   -0.120863
  19 H :   -0.147492
  20 H :   -0.135037
  21 H :   -0.130409
  22 H :   -0.122435
  23 H :   -0.167642
  24 H :   -0.120292
  25 H :   -0.147148
  26 H :   -0.134735
  27 H :   -0.130337
  28 C :   -0.785478
  29 O :    0.485266
  30 O :    0.882811
  31 H :   -0.410458

  Mayer bond orders larger than 0.100000
B(  0-O ,  1-N ) :   0.5639 B(  0-O ,  2-C ) :  -0.1968 B(  0-O ,  6-C ) :  -0.2120
B(  1-N ,  2-C ) :   0.6915 B(  1-N ,  3-C ) :   0.1551 B(  1-N ,  5-C ) :   0.1613
B(  1-N ,  6-C ) :   0.7225 B(  1-N ,  7-C ) :   0.1388 B(  1-N ,  9-C ) :   0.1460
B(  2-C ,  3-C ) :   0.6975 B(  2-C ,  6-C ) :   0.1924 B(  2-C ,  7-C ) :   0.7017
B(  2-C ,  8-C ) :   0.7196 B(  2-C , 12-H ) :   0.1156 B(  3-C ,  4-C ) :   1.0428
B(  3-C ,  5-C ) :   0.2503 B(  3-C , 11-H ) :   0.7505 B(  3-C , 12-H ) :   0.9179
B(  3-C , 28-C ) :  -0.1422 B(  3-C , 29-O ) :  -0.1269 B(  4-C ,  5-C ) :   1.0503
B(  4-C , 13-H ) :   0.8814 B(  4-C , 29-O ) :   0.2720 B(  4-C , 30-O ) :  -0.1923
B(  5-C ,  6-C ) :   0.5830 B(  5-C , 14-H ) :   0.8078 B(  5-C , 15-H ) :   0.8999
B(  5-C , 28-C ) :   0.3268 B(  6-C ,  9-C ) :   0.6627 B(  6-C , 10-C ) :   0.6864
B(  6-C , 27-H ) :  -0.1063 B(  7-C ,  8-C ) :   0.1019 B(  7-C , 16-H ) :   0.9782
B(  7-C , 17-H ) :   0.9392 B(  7-C , 18-H ) :   1.1648 B(  8-C , 19-H ) :   1.0096
B(  8-C , 20-H ) :   0.9939 B(  8-C , 21-H ) :   1.1022 B(  9-C , 10-C ) :   0.1096
B(  9-C , 22-H ) :   0.9790 B(  9-C , 23-H ) :   0.9548 B(  9-C , 24-H ) :   1.1599
B( 10-C , 25-H ) :   0.9939 B( 10-C , 26-H ) :   0.9922 B( 10-C , 27-H ) :   1.1281
B( 11-H , 12-H ) :  -0.1017 B( 12-H , 29-O ) :   0.1037 B( 13-H , 28-C ) :  -0.2265
B( 13-H , 29-O ) :  -0.1209 B( 28-C , 29-O ) :   0.7980 B( 28-C , 30-O ) :   0.9286
B( 29-O , 30-O ) :   0.1378 B( 30-O , 31-H ) :   0.9241

Dispersion correction           -0.043991666
FINAL SINGLE POINT ENERGY      -672.441378211997

DIPOLE MOMENT
-------------

Method             : SCF
Type of density    : Electron Density
Multiplicity       :   1
Irrep              :   0
Energy             :  -672.3973865456059684 Eh
Relativity type    :
Basis              : AO
                                X                 Y                 Z
Electronic contribution:      2.119051973      -6.942036313      -2.918668576
Nuclear contribution   :     -2.863841370       8.211044193       4.273231293
                        -----------------------------------------
Total Dipole Moment    :     -0.744789396       1.269007880       1.354562716
                        -----------------------------------------
Magnitude (a.u.)       :      1.999983099
Magnitude (Debye)      :      5.083553041

Rotational constants in cm-1:             0.032285             0.018393             0.014243
Rotational constants in MHz :           967.865978           551.414458           426.998453

                             ****ORCA TERMINATED NORMALLY****
TOTAL RUN TIME: 0 days 0 hours 8 minutes 37 seconds 279 msec
