                         Program Version 6.0.0  -   RELEASE  -
|  1> !PBE0 aug-cc-pVTZ d3 TightSCF SlowConv RIJCOSX defgrid2
|  2>
|  3> %pal
|  4> nprocs 4
|  5> end
|  6>
|  7> %scf
|  8> MaxIter 1500
|  9> end
| 10>
| 11> %maxcore 3000
| 12>
| 13> !CPCM
| 14> %cpcm smd true
| 15> SMDsolvent "MeCN"
| 16> surfacetype gepol_ses
| 17> rsolv 2.19
| 18> end
| 19>
| 20> * xyz 1 2
| 21> C           1.11125997383576     -1.29424514996325     -0.00265064680051
| 22> C           0.38198773558317      0.02008196306092     -0.00073603831801
| 23> C           1.09787452277410      1.23185818450004     -0.01840094347389
| 24> C           2.57516897563739      1.29944130725048     -0.05423021306044
| 25> C           3.25276060267681     -0.03006541948416     -0.36652594694293
| 26> C           2.57851945407381     -1.15958568043340      0.39766653752240
| 27> H           3.08673048588062     -2.11897794137244      0.21233290930891
| 28> H           2.64919644329653     -0.97201856058805      1.48490961905849
| 29> H           4.32300865456417      0.02994921608983     -0.11393141051059
| 30> H           3.19729504970193     -0.22847646380504     -1.45259326590540
| 31> H           2.88017444257326      2.09814619264511     -0.75665169289489
| 32> H           2.90436924042770      1.68065620438759      0.93876248720231
| 33> H           0.54894601237680      2.17778008647932      0.00559677216772
| 34> N          -0.94881866071091      0.02146974198586     -0.00750665676214
| 35> C          -1.80124595163478      1.22171206218783      0.02414035141441
| 36> C          -3.20201957398761      0.67299556712206      0.26488079247656
| 37> C          -3.16019989927783     -0.69168873479307     -0.41474108783946
| 38> C          -1.76503158912719     -1.19776594082048     -0.07505159311078
| 39> H          -1.34448546450201     -1.89626495900324     -0.81481906895254
| 40> H          -1.73682708705057     -1.69322252819275      0.91433806284159
| 41> H          -3.94379277720373     -1.38008145705625     -0.06506994380082
| 42> H          -3.26951180028075     -0.58721234569693     -1.50795872354530
| 43> H          -3.97836095131839      1.34028947438083     -0.13789958124651
| 44> H          -3.38451416042342      0.56256073325110      1.34753390290322
| 45> H          -1.45816127292513      1.91216175251807      0.80965132239800
| 46> H          -1.72037794411018      1.73381076618573     -0.95200027343459
| 47> H           0.59311740358867     -2.00524001309646      0.66292893429951
| 48> H           1.03641913556176     -1.72255585773926     -1.02261090499431
| 49> *
| 50>
| 51>                          ****END OF INPUT****

CARTESIAN COORDINATES (ANGSTROEM)
---------------------------------
  C      1.111260   -1.294245   -0.002651
  C      0.381988    0.020082   -0.000736
  C      1.097875    1.231858   -0.018401
  C      2.575169    1.299441   -0.054230
  C      3.252761   -0.030065   -0.366526
  C      2.578519   -1.159586    0.397667
  H      3.086730   -2.118978    0.212333
  H      2.649196   -0.972019    1.484910
  H      4.323009    0.029949   -0.113931
  H      3.197295   -0.228476   -1.452593
  H      2.880174    2.098146   -0.756652
  H      2.904369    1.680656    0.938762
  H      0.548946    2.177780    0.005597
  N     -0.948819    0.021470   -0.007507
  C     -1.801246    1.221712    0.024140
  C     -3.202020    0.672996    0.264881
  C     -3.160200   -0.691689   -0.414741
  C     -1.765032   -1.197766   -0.075052
  H     -1.344485   -1.896265   -0.814819
  H     -1.736827   -1.693223    0.914338
  H     -3.943793   -1.380081   -0.065070
  H     -3.269512   -0.587212   -1.507959
  H     -3.978361    1.340289   -0.137900
  H     -3.384514    0.562561    1.347534
  H     -1.458161    1.912162    0.809651
  H     -1.720378    1.733811   -0.952000
  H      0.593117   -2.005240    0.662929
  H      1.036419   -1.722556   -1.022611

 Total Charge           Charge          ....    1
 Multiplicity           Mult            ....    2
 Number of Electrons    NEL             ....   83
 Basis Dimension        Dim             ....  897

ORBITAL ENERGIES
----------------
                 SPIN UP ORBITALS
  NO   OCC          E(Eh)            E(eV)
   0   1.0000     -14.489030      -394.2666
   1   1.0000     -10.315044      -280.6866
   2   1.0000     -10.281557      -279.7754
   3   1.0000     -10.276772      -279.6452
   4   1.0000     -10.275661      -279.6150
   5   1.0000     -10.245099      -278.7833
   6   1.0000     -10.240115      -278.6477
   7   1.0000     -10.234273      -278.4887
   8   1.0000     -10.233940      -278.4797
   9   1.0000     -10.228195      -278.3233
  10   1.0000     -10.225780      -278.2576
  11   1.0000      -1.046501       -28.4767
  12   1.0000      -0.892511       -24.2865
  13   1.0000      -0.840665       -22.8756
  14   1.0000      -0.801981       -21.8230
  15   1.0000      -0.775148       -21.0929
  16   1.0000      -0.765509       -20.8306
  17   1.0000      -0.679441       -18.4885
  18   1.0000      -0.664718       -18.0879
  19   1.0000      -0.615999       -16.7622
  20   1.0000      -0.611656       -16.6440
  21   1.0000      -0.576900       -15.6983
  22   1.0000      -0.544530       -14.8174
  23   1.0000      -0.540974       -14.7206
  24   1.0000      -0.492502       -13.4017
  25   1.0000      -0.483664       -13.1612
  26   1.0000      -0.461587       -12.5604
  27   1.0000      -0.459253       -12.4969
  28   1.0000      -0.454177       -12.3588
  29   1.0000      -0.442841       -12.0503
  30   1.0000      -0.429693       -11.6925
  31   1.0000      -0.421642       -11.4735
  32   1.0000      -0.414926       -11.2907
  33   1.0000      -0.405925       -11.0458
  34   1.0000      -0.373723       -10.1695
  35   1.0000      -0.371751       -10.1159
  36   1.0000      -0.350444        -9.5361
  37   1.0000      -0.349008        -9.4970
  38   1.0000      -0.345110        -9.3909
  39   1.0000      -0.341233        -9.2854
  40   1.0000      -0.337098        -9.1729
  41   1.0000      -0.257995        -7.0204
  42   0.0000      -0.013907        -0.3784
  43   0.0000      -0.002969        -0.0808
  44   0.0000       0.007726         0.2102
  45   0.0000       0.011430         0.3110
  46   0.0000       0.012896         0.3509

                 SPIN DOWN ORBITALS
  NO   OCC          E(Eh)            E(eV)
   0   1.0000     -14.479778      -394.0148
   1   1.0000     -10.316727      -280.7324
   2   1.0000     -10.277099      -279.6541
   3   1.0000     -10.276079      -279.6263
   4   1.0000     -10.271750      -279.5085
   5   1.0000     -10.245006      -278.7808
   6   1.0000     -10.240516      -278.6586
   7   1.0000     -10.234231      -278.4876
   8   1.0000     -10.233908      -278.4788
   9   1.0000     -10.228205      -278.3236
  10   1.0000     -10.225719      -278.2560
  11   1.0000      -1.032386       -28.0926
  12   1.0000      -0.885979       -24.1087
  13   1.0000      -0.838862       -22.8266
  14   1.0000      -0.796000       -21.6602
  15   1.0000      -0.772376       -21.0174
  16   1.0000      -0.758426       -20.6378
  17   1.0000      -0.677854       -18.4453
  18   1.0000      -0.658928       -17.9303
  19   1.0000      -0.612565       -16.6687
  20   1.0000      -0.608633       -16.5617
  21   1.0000      -0.572643       -15.5824
  22   1.0000      -0.537524       -14.6268
  23   1.0000      -0.531332       -14.4583
  24   1.0000      -0.486871       -13.2484
  25   1.0000      -0.478806       -13.0290
  26   1.0000      -0.457885       -12.4597
  27   1.0000      -0.456642       -12.4259
  28   1.0000      -0.450152       -12.2493
  29   1.0000      -0.432900       -11.7798
  30   1.0000      -0.426982       -11.6188
  31   1.0000      -0.418677       -11.3928
  32   1.0000      -0.412150       -11.2152
  33   1.0000      -0.397691       -10.8217
  34   1.0000      -0.372847       -10.1457
  35   1.0000      -0.371166       -10.0999
  36   1.0000      -0.349011        -9.4971
  37   1.0000      -0.346502        -9.4288
  38   1.0000      -0.342701        -9.3254
  39   1.0000      -0.337245        -9.1769
  40   1.0000      -0.319977        -8.7070
  41   0.0000      -0.135613        -3.6902
  42   0.0000      -0.004164        -0.1133
  43   0.0000       0.006804         0.1852
  44   0.0000       0.012160         0.3309
  45   0.0000       0.012477         0.3395

MULLIKEN ATOMIC CHARGES AND SPIN POPULATIONS
--------------------------------------------
   0 C :   -0.010104    0.022625
   1 C :    0.359351   -0.048539
   2 C :   -0.412782    0.657894
   3 C :   -0.351649   -0.082500
   4 C :   -0.354158    0.003545
   5 C :   -0.517879   -0.007374
   6 H :    0.201228    0.000680
   7 H :    0.177835   -0.001769
   8 H :    0.205559    0.000250
   9 H :    0.195335    0.000802
  10 H :    0.251622    0.028477
  11 H :    0.209412    0.054609
  12 H :    0.262179   -0.044975
  13 N :    0.088910    0.401784
  14 C :   -0.403225   -0.036419
  15 C :   -0.462843    0.006194
  16 C :   -0.427497    0.005358
  17 C :   -0.362855   -0.040365
  18 H :    0.275607    0.013524
  19 H :    0.248286    0.031860
  20 H :    0.246281   -0.000037
  21 H :    0.166387    0.000044
  22 H :    0.247002   -0.000191
  23 H :    0.161596    0.000138
  24 H :    0.282759    0.014893
  25 H :    0.222452    0.018936
  26 H :    0.263254   -0.001272
  27 H :    0.237937    0.001826
Sum of atomic charges         :    1.0000000

LOEWDIN ATOMIC CHARGES AND SPIN POPULATIONS
-------------------------------------------
   0 C :    0.314285    0.002080
   1 C :   -0.100023    0.103300
   2 C :    0.358459    0.320805
   3 C :    0.297297    0.098832
   4 C :    0.287296    0.005412
   5 C :    0.294710    0.002142
   6 H :   -0.119495    0.000255
   7 H :   -0.116467    0.000346
   8 H :   -0.122898    0.000157
   9 H :   -0.120232    0.000863
  10 H :   -0.116906    0.014478
  11 H :   -0.108810    0.027194
  12 H :   -0.145470    0.061292
  13 N :    0.350227    0.239644
  14 C :    0.258311    0.035210
  15 C :    0.318893    0.000829
  16 C :    0.320878    0.002345
  17 C :    0.257955    0.045206
  18 H :   -0.111571    0.007549
  19 H :   -0.093094    0.014680
  20 H :   -0.115308    0.000009
  21 H :   -0.116924    0.000276
  22 H :   -0.115631   -0.000001
  23 H :   -0.117738    0.000016
  24 H :   -0.112637    0.007112
  25 H :   -0.093895    0.010396
  26 H :   -0.127880   -0.000659
  27 H :   -0.103334    0.000234

  Mayer bond orders larger than 0.100000
B(  0-C ,  1-C ) :   0.5830 B(  0-C ,  5-C ) :   0.9878 B(  0-C , 26-H ) :   0.8848
B(  0-C , 27-H ) :   0.9051 B(  1-C ,  2-C ) :   0.4126 B(  1-C ,  3-C ) :  -0.1662
B(  1-C ,  4-C ) :  -0.1049 B(  1-C , 13-N ) :   0.8425 B(  2-C ,  3-C ) :   0.9395
B(  2-C ,  4-C ) :   0.1246 B(  2-C , 12-H ) :   0.7483 B(  2-C , 13-N ) :  -0.1688
B(  2-C , 17-C ) :   0.1089 B(  3-C ,  4-C ) :   1.0325 B(  3-C , 10-H ) :   0.8688
B(  3-C , 11-H ) :   0.9420 B(  4-C ,  5-C ) :   1.0259 B(  4-C ,  8-H ) :   0.9375
B(  4-C ,  9-H ) :   0.9612 B(  5-C ,  6-H ) :   0.9284 B(  5-C ,  7-H ) :   0.9931
B( 13-N , 14-C ) :   0.8952 B( 13-N , 17-C ) :   0.7907 B( 14-C , 15-C ) :   0.9982
B( 14-C , 24-H ) :   0.9000 B( 14-C , 25-H ) :   0.9583 B( 15-C , 16-C ) :   1.0606
B( 15-C , 22-H ) :   0.9171 B( 15-C , 23-H ) :   1.0063 B( 16-C , 17-C ) :   0.9571
B( 16-C , 20-H ) :   0.9099 B( 16-C , 21-H ) :   1.0063 B( 17-C , 18-H ) :   0.8879
B( 17-C , 19-H ) :   0.9297

Dispersion correction           -0.025450471
FINAL SINGLE POINT ENERGY      -445.531474837330

DIPOLE MOMENT
-------------

Method             : SCF
Type of density    : Electron Density
Multiplicity       :   2
Irrep              :   0
Energy             :  -445.5060243668204407 Eh
Relativity type    :
Basis              : AO
                                X                 Y                 Z
Electronic contribution:     -0.898642422       1.319461352       0.064394636
Nuclear contribution   :      0.360970584      -1.012753361      -0.049963368
                        -----------------------------------------
Total Dipole Moment    :     -0.537671837       0.306707991       0.014431268
                        -----------------------------------------
Magnitude (a.u.)       :      0.619168037
Magnitude (Debye)      :      1.573800077

Rotational constants in cm-1:             0.091390             0.021094             0.017904
Rotational constants in MHz :          2739.816467           632.377129           536.750842

                             ****ORCA TERMINATED NORMALLY****
TOTAL RUN TIME: 0 days 0 hours 15 minutes 28 seconds 420 msec
