                         Program Version 6.0.0  -   RELEASE  -
|  1> !r2SCANh freq aug-cc-pVTZ d3 TightSCF SlowConv RIJCOSX defgrid2
|  2>
|  3> %pal
|  4> nprocs 12
|  5> end
|  6>
|  7> %scf
|  8> MaxIter 1500
|  9> end
| 10>
| 11> %maxcore 5000
| 12>
| 13> !CPCM
| 14> %cpcm smd true
| 15> SMDsolvent "MeCN"
| 16> surfacetype gepol_ses
| 17> rsolv 2.19
| 18> end
| 19>
| 20> * xyz 0 1
| 21>   C           0.86701562432470     -1.19855301103311      0.00016746547904
| 22>   C           1.23087972724226      0.14966871917256      0.00028092097232
| 23>   C           0.20729627938452      1.10093643847544      0.00029465473478
| 24>   C          -1.13800469409323      0.75107089004958      0.00011831117616
| 25>   C          -1.48768523249463     -0.60745261988991     -0.00006810465535
| 26>   C          -0.46838116959388     -1.55943901266392     -0.00002614592400
| 27>   H          -0.73304520459076     -2.60985114697810      0.00020500546722
| 28>   C          -2.92315021178713     -1.02825348489282     -0.00036626559500
| 29>   H          -3.01314529888708     -2.11252494554601      0.00039402404935
| 30>   H          -3.45074972462491     -0.64460258903454     -0.87615815923072
| 31>   H          -3.45154198028638     -0.64334840543539      0.87435791084079
| 32>   C          -2.19558472547008      1.81077401415362      0.00012313623555
| 33>   H          -2.84151263236942      1.72918561909109      0.87665881930062
| 34>   H          -2.84417317495327      1.72632568128246     -0.87413097536001
| 35>   H          -1.75335677412390      2.80483171482171     -0.00222828014875
| 36>   H           0.47446652377663      2.15171909167911      0.00017592932034
| 37>   C           2.61953386122355      0.60884246862680      0.00045107207083
| 38>   C           3.71681108242815     -0.14781384406715     -0.00049286904544
| 39>   H           3.68161296061879     -1.22966000107873     -0.00164443966843
| 40>   H           4.69749840949010      0.30771938886096     -0.00008257644090
| 41>   H           2.73854244048933      1.68813977766723      0.00122191279407
| 42>   H           1.62390541429664     -1.97116714326088      0.00026865362751
| 43> *
| 44>
| 45>                          ****END OF INPUT****

CARTESIAN COORDINATES (ANGSTROEM)
---------------------------------
  C      0.867016   -1.198553    0.000167
  C      1.230880    0.149669    0.000281
  C      0.207296    1.100936    0.000295
  C     -1.138005    0.751071    0.000118
  C     -1.487685   -0.607453   -0.000068
  C     -0.468381   -1.559439   -0.000026
  H     -0.733045   -2.609851    0.000205
  C     -2.923150   -1.028253   -0.000366
  H     -3.013145   -2.112525    0.000394
  H     -3.450750   -0.644603   -0.876158
  H     -3.451542   -0.643348    0.874358
  C     -2.195585    1.810774    0.000123
  H     -2.841513    1.729186    0.876659
  H     -2.844173    1.726326   -0.874131
  H     -1.753357    2.804832   -0.002228
  H      0.474467    2.151719    0.000176
  C      2.619534    0.608842    0.000451
  C      3.716811   -0.147814   -0.000493
  H      3.681613   -1.229660   -0.001644
  H      4.697498    0.307719   -0.000083
  H      2.738542    1.688140    0.001222
  H      1.623905   -1.971167    0.000269

 Total Charge           Charge          ....    0
 Multiplicity           Mult            ....    1
 Number of Electrons    NEL             ....   72
 Basis Dimension        Dim             ....  736

ORBITAL ENERGIES
----------------

  NO   OCC          E(Eh)            E(eV)
   0   2.0000     -10.165290      -276.6116
   1   2.0000     -10.164703      -276.5956
   2   2.0000     -10.164209      -276.5822
   3   2.0000     -10.161030      -276.4957
   4   2.0000     -10.153548      -276.2921
   5   2.0000     -10.152937      -276.2755
   6   2.0000     -10.152647      -276.2676
   7   2.0000     -10.146205      -276.0923
   8   2.0000     -10.141887      -275.9748
   9   2.0000     -10.141751      -275.9711
  10   2.0000      -0.868425       -23.6311
  11   2.0000      -0.803852       -21.8739
  12   2.0000      -0.765199       -20.8221
  13   2.0000      -0.746449       -20.3119
  14   2.0000      -0.694724       -18.9044
  15   2.0000      -0.666124       -18.1262
  16   2.0000      -0.598380       -16.2827
  17   2.0000      -0.592105       -16.1120
  18   2.0000      -0.534560       -14.5461
  19   2.0000      -0.489554       -13.3214
  20   2.0000      -0.471558       -12.8318
  21   2.0000      -0.439715       -11.9653
  22   2.0000      -0.424314       -11.5462
  23   2.0000      -0.418959       -11.4005
  24   2.0000      -0.402896       -10.9634
  25   2.0000      -0.396021       -10.7763
  26   2.0000      -0.384010       -10.4494
  27   2.0000      -0.369903       -10.0656
  28   2.0000      -0.367668       -10.0047
  29   2.0000      -0.360950        -9.8219
  30   2.0000      -0.346696        -9.4341
  31   2.0000      -0.321981        -8.7616
  32   2.0000      -0.316589        -8.6148
  33   2.0000      -0.290410        -7.9025
  34   2.0000      -0.245107        -6.6697
  35   2.0000      -0.217265        -5.9121
  36   0.0000      -0.052365        -1.4249
  37   0.0000      -0.019697        -0.5360
  38   0.0000       0.009997         0.2720
  39   0.0000       0.020155         0.5484
  40   0.0000       0.023718         0.6454

MULLIKEN ATOMIC CHARGES
-----------------------
   0 C :   -0.269652
   1 C :    2.219217
   2 C :   -1.263640
   3 C :    0.816062
   4 C :    1.023017
   5 C :   -1.299483
   6 H :   -0.044170
   7 C :   -0.769986
   8 H :    0.086476
   9 H :    0.212061
  10 H :    0.210921
  11 C :   -0.769528
  12 H :    0.209096
  13 H :    0.207396
  14 H :    0.094023
  15 H :   -0.397106
  16 C :    0.083922
  17 C :   -0.997073
  18 H :    0.181293
  19 H :    0.303941
  20 H :    0.070298
  21 H :    0.092915
Sum of atomic charges:    0.0000000

LOEWDIN ATOMIC CHARGES
----------------------
   0 C :    0.210352
   1 C :   -0.153356
   2 C :    0.225482
   3 C :   -0.103934
   4 C :   -0.108314
   5 C :    0.221991
   6 H :   -0.174514
   7 C :    0.589260
   8 H :   -0.173140
   9 H :   -0.160466
  10 H :   -0.160466
  11 C :    0.591248
  12 H :   -0.160225
  13 H :   -0.160449
  14 H :   -0.172708
  15 H :   -0.174065
  16 C :    0.166311
  17 C :    0.530413
  18 H :   -0.227678
  19 H :   -0.222478
  20 H :   -0.194951
  21 H :   -0.188313

  Mayer bond orders larger than 0.100000
B(  0-C ,  2-C ) :  -0.9251 B(  0-C ,  3-C ) :  -0.2429 B(  0-C ,  5-C ) :   0.5136
B(  0-C ,  6-H ) :  -0.1730 B(  0-C , 16-C ) :   0.2889 B(  0-C , 18-H ) :  -0.1396
B(  0-C , 21-H ) :   1.6293 B(  1-C ,  2-C ) :  -0.7058 B(  1-C ,  3-C ) :   0.5034
B(  1-C ,  4-C ) :  -0.3131 B(  1-C ,  7-C ) :   0.1085 B(  1-C , 15-H ) :  -0.5679
B(  1-C , 16-C ) :  -0.1217 B(  1-C , 21-H ) :  -0.1921 B(  2-C ,  3-C ) :   0.4979
B(  2-C ,  4-C ) :  -0.3437 B(  2-C ,  5-C ) :   0.2313 B(  2-C , 11-C ) :  -0.2296
B(  2-C , 15-H ) :   2.5039 B(  2-C , 16-C ) :   0.2038 B(  2-C , 17-C ) :   0.1195
B(  2-C , 20-H ) :  -0.1536 B(  3-C ,  4-C ) :   1.2165 B(  3-C ,  5-C ) :   0.2001
B(  3-C ,  7-C ) :   0.1580 B(  3-C , 11-C ) :  -0.1677 B(  3-C , 12-H ) :  -0.1205
B(  3-C , 13-H ) :  -0.1205 B(  3-C , 15-H ) :  -0.2613 B(  3-C , 20-H ) :   0.1317
B(  3-C , 21-H ) :  -0.2511 B(  4-C ,  5-C ) :   0.4790 B(  4-C ,  7-C ) :   0.1449
B(  4-C , 11-C ) :   0.4498 B(  4-C , 15-H ) :  -0.1118 B(  4-C , 16-C ) :   0.1282
B(  4-C , 21-H ) :  -0.1322 B(  5-C ,  6-H ) :   1.3913 B(  5-C ,  7-C ) :  -0.1736
B(  5-C , 17-C ) :  -0.1502 B(  5-C , 21-H ) :  -0.1691 B(  7-C ,  8-H ) :   1.0895
B(  7-C ,  9-H ) :   1.0219 B(  7-C , 10-H ) :   1.0218 B( 11-C , 12-H ) :   1.0309
B( 11-C , 13-H ) :   1.0326 B( 11-C , 14-H ) :   1.0655 B( 15-H , 16-C ) :  -0.2094
B( 15-H , 20-H ) :  -0.1085 B( 16-C , 17-C ) :   0.8080 B( 16-C , 18-H ) :  -0.1145
B( 16-C , 20-H ) :   1.1243 B( 17-C , 18-H ) :   1.2303 B( 17-C , 19-H ) :   0.8128
B( 17-C , 20-H ) :  -0.2058

Dispersion correction           -0.007377534
FINAL SINGLE POINT ENERGY      -388.182971523509

DIPOLE MOMENT
-------------

Method             : SCF
Type of density    : Electron Density
Multiplicity       :   1
Irrep              :   0
Energy             :  -388.1755939891803564 Eh
Relativity type    :
Basis              : AO
                                X                 Y                 Z
Electronic contribution:      3.958267560      -1.046480654       0.001429373
Nuclear contribution   :     -4.590678745       1.143012888      -0.001313272
                        -----------------------------------------
Total Dipole Moment    :     -0.632411185       0.096532234       0.000116100
                        -----------------------------------------
Magnitude (a.u.)       :      0.639736189
Magnitude (Debye)      :      1.626080167

VIBRATIONAL FREQUENCIES
-----------------------

Scaling factor for frequencies =  1.000000000  (already applied!)

     0:       0.00 cm**-1
     1:       0.00 cm**-1
     2:       0.00 cm**-1
     3:       0.00 cm**-1
     4:       0.00 cm**-1
     5:       0.00 cm**-1
     6:       9.31 cm**-1
     7:     121.32 cm**-1
     8:     131.10 cm**-1
     9:     171.45 cm**-1
    10:     200.82 cm**-1
    11:     211.62 cm**-1
    12:     302.35 cm**-1
    13:     310.14 cm**-1
    14:     378.91 cm**-1
    15:     434.07 cm**-1
    16:     446.65 cm**-1
    17:     521.26 cm**-1
    18:     542.40 cm**-1
    19:     577.77 cm**-1
    20:     687.50 cm**-1
    21:     726.52 cm**-1
    22:     757.49 cm**-1
    23:     766.64 cm**-1
    24:     845.92 cm**-1
    25:     913.49 cm**-1
    26:     933.50 cm**-1
    27:     944.15 cm**-1
    28:     981.47 cm**-1
    29:    1013.32 cm**-1
    30:    1016.03 cm**-1
    31:    1042.80 cm**-1
    32:    1043.30 cm**-1
    33:    1066.23 cm**-1
    34:    1071.43 cm**-1
    35:    1145.96 cm**-1
    36:    1196.46 cm**-1
    37:    1238.29 cm**-1
    38:    1273.61 cm**-1
    39:    1317.24 cm**-1
    40:    1332.60 cm**-1
    41:    1362.67 cm**-1
    42:    1398.82 cm**-1
    43:    1404.07 cm**-1
    44:    1423.98 cm**-1
    45:    1459.74 cm**-1
    46:    1462.75 cm**-1
    47:    1472.30 cm**-1
    48:    1477.13 cm**-1
    49:    1486.18 cm**-1
    50:    1541.11 cm**-1
    51:    1616.67 cm**-1
    52:    1658.93 cm**-1
    53:    1692.24 cm**-1
    54:    3036.14 cm**-1
    55:    3038.30 cm**-1
    56:    3088.95 cm**-1
    57:    3094.03 cm**-1
    58:    3134.34 cm**-1
    59:    3135.05 cm**-1
    60:    3145.61 cm**-1
    61:    3156.40 cm**-1
    62:    3165.71 cm**-1
    63:    3174.96 cm**-1
    64:    3198.98 cm**-1
    65:    3242.47 cm**-1

IR SPECTRUM
-----------

 Mode   freq       eps      Int      T**2         TX        TY        TZ
       cm**-1   L/(mol*cm) km/mol    a.u.
----------------------------------------------------------------------------
  6:      9.31   0.000012    0.06  0.000402  ( 0.000366 -0.000508 -0.020037)
  7:    121.32   0.000091    0.46  0.000234  (-0.000225 -0.000173  0.015298)
  8:    131.10   0.000394    1.99  0.000938  ( 0.000032  0.000154  0.030628)
  9:    171.45   0.000435    2.20  0.000791  ( 0.000114 -0.000374 -0.028120)
 10:    200.82   0.000195    0.99  0.000304  ( 0.013303 -0.011252 -0.000365)
 11:    211.62   0.001077    5.44  0.001589  ( 0.000155 -0.000348  0.039856)
 12:    302.35   0.000250    1.26  0.000258  (-0.015924  0.002112  0.000054)
 13:    310.14   0.000064    0.32  0.000064  (-0.000199 -0.000097 -0.008013)
 14:    378.91   0.000391    1.97  0.000322  ( 0.013196  0.012152 -0.000009)
 15:    434.07   0.000671    3.39  0.000483  (-0.021957  0.000683 -0.000288)
 16:    446.65   0.003312   16.74  0.002314  ( 0.000251  0.000082 -0.048103)
 17:    521.26   0.002314   11.70  0.001386  ( 0.000115  0.000016 -0.037223)
 18:    542.40   0.000527    2.66  0.000303  ( 0.016347 -0.005974  0.000264)
 19:    577.77   0.000589    2.98  0.000318  ( 0.016690  0.006302  0.000058)
 20:    687.50   0.000212    1.07  0.000096  ( 0.000026  0.000065 -0.009808)
 21:    726.52   0.000246    1.25  0.000106  (-0.010270  0.000634 -0.000118)
 22:    757.49   0.001102    5.57  0.000454  ( 0.000120 -0.000088 -0.021308)
 23:    766.64   0.000136    0.69  0.000055  (-0.007374 -0.001052 -0.000063)
 24:    845.92   0.008839   44.67  0.003261  (-0.000018 -0.000033  0.057103)
 25:    913.49   0.006810   34.41  0.002326  ( 0.000085  0.000060 -0.048232)
 26:    933.50   0.016100   81.36  0.005382  (-0.000033 -0.000022 -0.073363)
 27:    944.15   0.000197    1.00  0.000065  (-0.001647  0.007886  0.000435)
 28:    981.47   0.000111    0.56  0.000035  ( 0.000164 -0.000188 -0.005930)
 29:   1013.32   0.007656   38.69  0.002358  ( 0.048033 -0.007099 -0.000380)
 30:   1016.03   0.000360    1.82  0.000111  ( 0.007025 -0.007821  0.000440)
 31:   1042.80   0.008923   45.09  0.002670  (-0.000049 -0.000343  0.051673)
 32:   1043.30   0.001379    6.97  0.000412  (-0.000171 -0.000199 -0.020308)
 33:   1066.23   0.000637    3.22  0.000186  (-0.011159 -0.007854 -0.000441)
 34:   1071.43   0.000001    0.01  0.000000  ( 0.000340 -0.000176 -0.000444)
 35:   1145.96   0.001788    9.03  0.000487  (-0.012817 -0.017960 -0.000061)
 36:   1196.46   0.000627    3.17  0.000164  (-0.009636  0.008411  0.000004)
 37:   1238.29   0.000014    0.07  0.000003  (-0.001823  0.000310 -0.000051)
 38:   1273.61   0.005316   26.86  0.001302  ( 0.035343 -0.007305  0.000022)
 39:   1317.24   0.000980    4.95  0.000232  ( 0.015206 -0.000987 -0.000015)
 40:   1332.60   0.000124    0.63  0.000029  (-0.003455  0.004137 -0.000005)
 41:   1362.67   0.001736    8.77  0.000398  ( 0.019759  0.002664  0.000022)
 42:   1398.82   0.000069    0.35  0.000015  ( 0.003409 -0.001934  0.000231)
 43:   1404.07   0.000426    2.16  0.000095  (-0.006214  0.007494  0.000071)
 44:   1423.98   0.001219    6.16  0.000267  (-0.013037 -0.009859  0.000071)
 45:   1459.74   0.002157   10.90  0.000461  ( 0.001779  0.021398  0.000108)
 46:   1462.75   0.000007    0.03  0.000001  ( 0.000067 -0.000285 -0.001142)
 47:   1472.30   0.006031   30.48  0.001278  (-0.000204  0.000201 -0.035751)
 48:   1477.13   0.000609    3.08  0.000129  ( 0.007728 -0.008254 -0.000891)
 49:   1486.18   0.004356   22.01  0.000915  ( 0.011236  0.028079 -0.000215)
 50:   1541.11   0.010997   55.58  0.002227  (-0.047069  0.003373  0.000003)
 51:   1616.67   0.002847   14.39  0.000550  ( 0.019027 -0.013698 -0.000003)
 52:   1658.93   0.001904    9.62  0.000358  ( 0.003335  0.018629  0.000003)
 53:   1692.24   0.010832   54.74  0.001997  (-0.044001  0.007836  0.000024)
 54:   3036.14   0.013791   69.69  0.001417  (-0.037506  0.003279 -0.000074)
 55:   3038.30   0.003511   17.74  0.000361  ( 0.008313 -0.017074 -0.000130)
 56:   3088.95   0.008729   44.11  0.000882  (-0.000016  0.000008 -0.029696)
 57:   3094.03   0.000585    2.96  0.000059  (-0.000129  0.000051 -0.007681)
 58:   3134.34   0.011175   56.47  0.001113  (-0.007933 -0.032398 -0.000062)
 59:   3135.05   0.000484    2.45  0.000048  ( 0.006773  0.001517  0.000017)
 60:   3145.61   0.004850   24.51  0.000481  (-0.006558 -0.020932 -0.000067)
 61:   3156.40   0.001031    5.21  0.000102  (-0.009645  0.002992 -0.000018)
 62:   3165.71   0.008013   40.50  0.000790  ( 0.007418  0.027109  0.000088)
 63:   3174.96   0.004016   20.29  0.000395  ( 0.013579  0.014501  0.000064)
 64:   3198.98   0.003986   20.14  0.000389  (-0.008087  0.017985  0.000015)
 65:   3242.47   0.003000   15.16  0.000289  (-0.008867 -0.014494  0.000014)

--------------------------
THERMOCHEMISTRY AT 298.15K
--------------------------

Temperature         ...   298.15 K
Pressure            ...     1.00 atm
Total Mass          ...   132.21 AMU
Quasi RRHO          ...     True
Cut-Off Frequency   ...     1.00 cm^-1

Throughout the following assumptions are being made:
  (1) The electronic state is orbitally nondegenerate
  (2) There are no thermally accessible electronically excited states
  (3) Hindered rotations indicated by low frequency modes are not
      treated as such but are treated as vibrations and this may
      cause some error
  (4) All equations used are the standard statistical mechanics
      equations for an ideal gas
  (5) All vibrations are strictly harmonic

freq.       9.31  E(vib)   ...       0.58
freq.     121.32  E(vib)   ...       0.44
freq.     131.10  E(vib)   ...       0.42
freq.     171.45  E(vib)   ...       0.38
freq.     200.82  E(vib)   ...       0.35
freq.     211.62  E(vib)   ...       0.34
freq.     302.35  E(vib)   ...       0.26
freq.     310.14  E(vib)   ...       0.26
freq.     378.91  E(vib)   ...       0.21
freq.     434.07  E(vib)   ...       0.17
freq.     446.65  E(vib)   ...       0.17
freq.     521.26  E(vib)   ...       0.13
freq.     542.40  E(vib)   ...       0.12
freq.     577.77  E(vib)   ...       0.11
freq.     687.50  E(vib)   ...       0.07
freq.     726.52  E(vib)   ...       0.06
freq.     757.49  E(vib)   ...       0.06
freq.     766.64  E(vib)   ...       0.06
freq.     845.92  E(vib)   ...       0.04
freq.     913.49  E(vib)   ...       0.03
freq.     933.50  E(vib)   ...       0.03
freq.     944.15  E(vib)   ...       0.03
freq.     981.47  E(vib)   ...       0.02
freq.    1013.32  E(vib)   ...       0.02
freq.    1016.03  E(vib)   ...       0.02
freq.    1042.80  E(vib)   ...       0.02
freq.    1043.30  E(vib)   ...       0.02
freq.    1066.23  E(vib)   ...       0.02
freq.    1071.43  E(vib)   ...       0.02
freq.    1145.96  E(vib)   ...       0.01
freq.    1196.46  E(vib)   ...       0.01
freq.    1238.29  E(vib)   ...       0.01
freq.    1273.61  E(vib)   ...       0.01
freq.    1317.24  E(vib)   ...       0.01
freq.    1332.60  E(vib)   ...       0.01
freq.    1362.67  E(vib)   ...       0.01
freq.    1398.82  E(vib)   ...       0.00
freq.    1404.07  E(vib)   ...       0.00
freq.    1423.98  E(vib)   ...       0.00
freq.    1459.74  E(vib)   ...       0.00
freq.    1462.75  E(vib)   ...       0.00
freq.    1472.30  E(vib)   ...       0.00
freq.    1477.13  E(vib)   ...       0.00
freq.    1486.18  E(vib)   ...       0.00
freq.    1541.11  E(vib)   ...       0.00
freq.    1616.67  E(vib)   ...       0.00
freq.    1658.93  E(vib)   ...       0.00
freq.    1692.24  E(vib)   ...       0.00
freq.    3036.14  E(vib)   ...       0.00
freq.    3038.30  E(vib)   ...       0.00
freq.    3088.95  E(vib)   ...       0.00
freq.    3094.03  E(vib)   ...       0.00
freq.    3134.34  E(vib)   ...       0.00
freq.    3135.05  E(vib)   ...       0.00
freq.    3145.61  E(vib)   ...       0.00
freq.    3156.40  E(vib)   ...       0.00
freq.    3165.71  E(vib)   ...       0.00
freq.    3174.96  E(vib)   ...       0.00
freq.    3198.98  E(vib)   ...       0.00
freq.    3242.47  E(vib)   ...       0.00

------------
INNER ENERGY
------------

The inner energy is: U= E(el) + E(ZPE) + E(vib) + E(rot) + E(trans)
    E(el)   - is the total energy from the electronic structure calculation
              = E(kin-el) + E(nuc-el) + E(el-el) + E(nuc-nuc)
    E(ZPE)  - the the zero temperature vibrational energy from the frequency calculation
    E(vib)  - the the finite temperature correction to E(ZPE) due to population
              of excited vibrational states
    E(rot)  - is the rotational thermal energy
    E(trans)- is the translational thermal energy

Summary of contributions to the inner energy U:
Electronic energy                ...   -388.18297152 Eh
Zero point energy                ...      0.18849708 Eh     118.28 kcal/mol
Thermal vibrational correction   ...      0.00727324 Eh       4.56 kcal/mol
Thermal rotational correction    ...      0.00141627 Eh       0.89 kcal/mol
Thermal translational correction ...      0.00141627 Eh       0.89 kcal/mol
-----------------------------------------------------------------------
Total thermal energy                   -387.98436867 Eh

Summary of corrections to the electronic energy:
(perhaps to be used in another calculation)
Total thermal correction                  0.01010578 Eh       6.34 kcal/mol
Non-thermal (ZPE) correction              0.18849708 Eh     118.28 kcal/mol
-----------------------------------------------------------------------
Total correction                          0.19860286 Eh     124.62 kcal/mol

--------
ENTHALPY
--------

The enthalpy is H = U + kB*T
                kB is Boltzmann's constant
Total thermal energy              ...   -387.98436867 Eh
Thermal Enthalpy correction       ...      0.00094421 Eh       0.59 kcal/mol
-----------------------------------------------------------------------
Total Enthalpy                    ...   -387.98342446 Eh

Note: Only C1 symmetry has been detected, increase convergence thresholds
      if your molecule has a higher symmetry. Symmetry factor of 1.0 is
      used for the rotational entropy correction.

Note: Rotational entropy computed according to Herzberg
Infrared and Raman Spectra, Chapter V,1, Van Nostrand Reinhold, 1945
Point Group:  C1, Symmetry Number:   1
Rotational constants in cm-1:     0.098234     0.028869     0.022496

Vibrational entropy computed according to the QRRHO of S. Grimme
Chem.Eur.J. 2012 18 9955 using a reference frequency of 100.0 cm-1

-------
ENTROPY
-------

The entropy contributions are T*S = T*(S(el)+S(vib)+S(rot)+S(trans))
     S(el)   - electronic entropy
     S(vib)  - vibrational entropy
     S(rot)  - rotational entropy
     S(trans)- translational entropy
The entropies will be listed as multiplied by the temperature to get
units of energy

Electronic entropy                ...      0.00000000 Eh      0.00 kcal/mol
Vibrational entropy               ...      0.01296257 Eh      8.13 kcal/mol
Rotational entropy                ...      0.01407111 Eh      8.83 kcal/mol
Translational entropy             ...      0.01926665 Eh     12.09 kcal/mol
-----------------------------------------------------------------------
Final entropy term                ...      0.04630033 Eh     29.05 kcal/mol

In case the symmetry of your molecule has not been determined correctly
or in case you have a reason to use a different symmetry number we print
out the resulting rotational entropy values for sn=1,12:

 non-linear molecules -----------------------------------

                             ****ORCA TERMINATED NORMALLY****
TOTAL RUN TIME: 0 days 1 hours 4 minutes 14 seconds 682 msec
