                         Program Version 6.0.0  -   RELEASE  -
|  1> !PBE0 def2-SV(p) Opt Freq d3 TightSCF SlowConv RIJCOSX defgrid2
|  2>
|  3> %pal
|  4> nprocs 4
|  5> end
|  6>
|  7> %scf
|  8> MaxIter 1500
|  9> end
| 10>
| 11> %maxcore 3000
| 12>
| 13>
| 14>
| 15> * xyz 1 2
| 16> C     2.5244706   -0.7640939    0.5749756
| 17> N     1.2525993   -1.2727058    0.3021304
| 18> C     0.2983024   -0.6337669   -0.2679208
| 19> N     0.3140639    0.7222174   -0.3402718
| 20> C    -0.8982961    1.4821133   -0.5313827
| 21> C    -1.9673376    1.2161150    0.5444264
| 22> C    -2.8233502   -0.0161071    0.2683096
| 23> C    -2.0437370   -1.3271160    0.3214855
| 24> C    -0.9067558   -1.4014102   -0.7100346
| 25> H    -1.2573971   -1.0347755   -1.6758687
| 26> H    -0.6019248   -2.4420299   -0.8217344
| 27> H    -1.6350399   -1.4838152    1.3210996
| 28> H    -2.7331218   -2.1467081    0.1175954
| 29> H    -3.6206756   -0.0558548    1.0123065
| 30> H    -3.2991971    0.0855687   -0.7093838
| 31> H    -1.4822822    1.1232537    1.5177858
| 32> H    -2.6202626    2.0888007    0.5758628
| 33> H    -1.3176764    1.2444699   -1.5145564
| 34> H    -0.6297977    2.5388123   -0.5149733
| 35> C     1.4933425    1.4233146    0.1193714
| 36> C     2.7397575    0.5821666   -0.1262002
| 37> H     3.6218609    1.0847696    0.2662860
| 38> H     2.8716661    0.4212263   -1.1976538
| 39> H     1.5665801    2.3666799   -0.4304117
| 40> H     1.3849138    1.6715395    1.1850474
| 41> H     2.6442623   -0.7207919    1.6681716
| 42> H     3.2635519   -1.5041338    0.2371045
| 43> *
| 44>
| 45>                          ****END OF INPUT****
 Total Charge           Charge          ....    1
 Multiplicity           Mult            ....    2
 Number of Electrons    NEL             ....   83
Dispersion correction           -0.026012460
FINAL SINGLE POINT ENERGY      -460.940523038984
Dispersion correction             ... done (  0.1 sec)
Dispersion correction           -0.025817597
FINAL SINGLE POINT ENERGY      -460.944577476627
Dispersion correction             ... done (  0.1 sec)
Dispersion correction           -0.025738147
FINAL SINGLE POINT ENERGY      -460.945833797752
Dispersion correction             ... done (  0.1 sec)
FINAL SINGLE POINT ENERGY      -460.946250523745
FINAL SINGLE POINT ENERGY      -460.946326720445
FINAL SINGLE POINT ENERGY      -460.946354214706
FINAL SINGLE POINT ENERGY      -460.946362801179
Dispersion correction             ... done (  0.1 sec)
Dispersion correction           -0.025668710
FINAL SINGLE POINT ENERGY      -460.946366162669
Dispersion correction             ... done (  0.1 sec)
Dispersion correction           -0.025665107
FINAL SINGLE POINT ENERGY      -460.946367428827
Dispersion correction             ... done (  0.1 sec)
                    ***********************HURRAY********************

CARTESIAN COORDINATES (ANGSTROEM)
---------------------------------
  C      2.579794   -0.765129    0.550029
  N      1.265009   -1.289081    0.406366
  C      0.282986   -0.625226   -0.187778
  N      0.310551    0.709740   -0.219450
  C     -0.904285    1.504624   -0.442399
  C     -2.039476    1.217620    0.538734
  C     -2.862079   -0.031942    0.241245
  C     -2.092316   -1.344223    0.300813
  C     -0.898003   -1.406868   -0.664266
  H     -1.193525   -1.047679   -1.666373
  H     -0.555678   -2.447566   -0.767348
  H     -1.736413   -1.547541    1.326970
  H     -2.770552   -2.173404    0.040481
  H     -3.702775   -0.077564    0.953703
  H     -3.319610    0.073850   -0.760689
  H     -1.626779    1.186041    1.564225
  H     -2.706928    2.095487    0.505835
  H     -1.233436    1.343227   -1.485703
  H     -0.593367    2.555533   -0.360872
  C      1.542943    1.429518    0.102617
  C      2.754360    0.563470   -0.166676
  H      3.666761    1.079052    0.171548
  H      2.853585    0.395384   -1.253275
  H      1.558032    2.337190   -0.521857
  H      1.492127    1.760617    1.158113
  H      2.781642   -0.707429    1.639500
  H      3.285952   -1.539963    0.188073

 Multiplicity           Mult            ....    2
 Number of Electrons    NEL             ....   83
 Basis Dimension        Dim             ....  186

ORBITAL ENERGIES
----------------
                 SPIN UP ORBITALS
  NO   OCC          E(Eh)            E(eV)
   0   1.0000     -14.656309      -398.8184
   1   1.0000     -14.611281      -397.5932
   2   1.0000     -10.509629      -285.9815
   3   1.0000     -10.447223      -284.2834
   4   1.0000     -10.437694      -284.0241
   5   1.0000     -10.434490      -283.9369
   6   1.0000     -10.401370      -283.0357
   7   1.0000     -10.397727      -282.9365
   8   1.0000     -10.381542      -282.4961
   9   1.0000     -10.374475      -282.3038
  10   1.0000     -10.364446      -282.0309
  11   1.0000      -1.223598       -33.2958
  12   1.0000      -1.124524       -30.5998
  13   1.0000      -1.012132       -27.5415
  14   1.0000      -0.971655       -26.4401
  15   1.0000      -0.949161       -25.8280
  16   1.0000      -0.886668       -24.1275
  17   1.0000      -0.873307       -23.7639
  18   1.0000      -0.855555       -23.2808
  19   1.0000      -0.783975       -21.3330
  20   1.0000      -0.746109       -20.3027
  21   1.0000      -0.717217       -19.5165
  22   1.0000      -0.713000       -19.4017
  23   1.0000      -0.693625       -18.8745
  24   1.0000      -0.674717       -18.3600
  25   1.0000      -0.638939       -17.3864
  26   1.0000      -0.629231       -17.1222
  27   1.0000      -0.624518       -16.9940
  28   1.0000      -0.614105       -16.7106
  29   1.0000      -0.606383       -16.5005
  30   1.0000      -0.585220       -15.9247
  31   1.0000      -0.580931       -15.8079
  32   1.0000      -0.574203       -15.6248
  33   1.0000      -0.552936       -15.0461
  34   1.0000      -0.545658       -14.8481
  35   1.0000      -0.522583       -14.2202
  36   1.0000      -0.513275       -13.9669
  37   1.0000      -0.486231       -13.2310
  38   1.0000      -0.484170       -13.1749
  39   1.0000      -0.481034       -13.0896
  40   1.0000      -0.473519       -12.8851
  41   1.0000      -0.452654       -12.3174
  42   0.0000      -0.183597        -4.9959
  43   0.0000      -0.089820        -2.4441
  44   0.0000      -0.066245        -1.8026
  45   0.0000      -0.060655        -1.6505
  46   0.0000      -0.057672        -1.5693

                 SPIN DOWN ORBITALS
  NO   OCC          E(Eh)            E(eV)
   0   1.0000     -14.648755      -398.6129
   1   1.0000     -14.595436      -397.1620
   2   1.0000     -10.512070      -286.0480
   3   1.0000     -10.447532      -284.2918
   4   1.0000     -10.437935      -284.0307
   5   1.0000     -10.434802      -283.9454
   6   1.0000     -10.401212      -283.0314
   7   1.0000     -10.397362      -282.9266
   8   1.0000     -10.381138      -282.4851
   9   1.0000     -10.374521      -282.3051
  10   1.0000     -10.364444      -282.0309
  11   1.0000      -1.209334       -32.9076
  12   1.0000      -1.098588       -29.8941
  13   1.0000      -1.011000       -27.5107
  14   1.0000      -0.970161       -26.3994
  15   1.0000      -0.945801       -25.7366
  16   1.0000      -0.881800       -23.9950
  17   1.0000      -0.868484       -23.6327
  18   1.0000      -0.852532       -23.1986
  19   1.0000      -0.781402       -21.2630
  20   1.0000      -0.741881       -20.1876
  21   1.0000      -0.712020       -19.3750
  22   1.0000      -0.707669       -19.2567
  23   1.0000      -0.685140       -18.6436
  24   1.0000      -0.666161       -18.1272
  25   1.0000      -0.628094       -17.0913
  26   1.0000      -0.625694       -17.0260
  27   1.0000      -0.621314       -16.9068
  28   1.0000      -0.607847       -16.5404
  29   1.0000      -0.600984       -16.3536
  30   1.0000      -0.579319       -15.7641
  31   1.0000      -0.574626       -15.6364
  32   1.0000      -0.567086       -15.4312
  33   1.0000      -0.547345       -14.8940
  34   1.0000      -0.541478       -14.7344
  35   1.0000      -0.520080       -14.1521
  36   1.0000      -0.509673       -13.8689
  37   1.0000      -0.485136       -13.2012
  38   1.0000      -0.482829       -13.1385
  39   1.0000      -0.477611       -12.9965
  40   1.0000      -0.447020       -12.1640
  41   0.0000      -0.315231        -8.5779
  42   0.0000      -0.163543        -4.4502
  43   0.0000      -0.088799        -2.4164
  44   0.0000      -0.065134        -1.7724
  45   0.0000      -0.059966        -1.6318

MULLIKEN ATOMIC CHARGES AND SPIN POPULATIONS
--------------------------------------------
   0 C :   -0.126531   -0.037417
   1 N :   -0.135824    0.707389
   2 C :    0.098881   -0.131589
   3 N :   -0.259715    0.307760
   4 C :   -0.106695   -0.017221
   5 C :   -0.248180    0.014930
   6 C :   -0.232357   -0.000040
   7 C :   -0.239535   -0.000544
   8 C :   -0.141702    0.016706
   9 H :    0.162481   -0.003442
  10 H :    0.170693    0.000147
  11 H :    0.149865    0.000089
  12 H :    0.171701    0.000355
  13 H :    0.165418   -0.000134
  14 H :    0.139407    0.000139
  15 H :    0.143953    0.000019
  16 H :    0.172440    0.000898
  17 H :    0.176986    0.019223
  18 H :    0.173048    0.000820
  19 C :   -0.109707   -0.016275
  20 C :   -0.283388    0.006411
  21 H :    0.191795    0.002617
  22 H :    0.172862   -0.000950
  23 H :    0.194705    0.013744
  24 H :    0.187065    0.017540
  25 H :    0.197377    0.043250
  26 H :    0.214958    0.055575
Sum of atomic charges         :    1.0000000

LOEWDIN ATOMIC CHARGES AND SPIN POPULATIONS
-------------------------------------------
   0 C :   -0.166611    0.004012
   1 N :    0.030697    0.650430
   2 C :    0.076190   -0.074463
   3 N :    0.061951    0.275249
   4 C :   -0.141360   -0.003100
   5 C :   -0.236959    0.013848
   6 C :   -0.233515    0.000351
   7 C :   -0.218642   -0.000936
   8 C :   -0.224758    0.011785
   9 H :    0.152529   -0.002764
  10 H :    0.163836    0.000081
  11 H :    0.135938    0.000194
  12 H :    0.150508    0.000243
  13 H :    0.146718   -0.000164
  14 H :    0.131491    0.000107
  15 H :    0.135078   -0.000099
  16 H :    0.154894    0.000304
  17 H :    0.151141    0.015267
  18 H :    0.148946    0.000626
  19 C :   -0.139711   -0.005002
  20 C :   -0.249263    0.005412
  21 H :    0.165044    0.001556
  22 H :    0.149418   -0.000738
  23 H :    0.158827    0.010998
  24 H :    0.152861    0.015067
  25 H :    0.166736    0.035784
  26 H :    0.178016    0.045952

  Mayer bond orders larger than 0.100000
B(  0-C ,  1-N ) :   1.0487 B(  0-C , 20-C ) :   1.0635 B(  0-C , 25-H ) :   0.8901
B(  0-C , 26-H ) :   0.8836 B(  1-N ,  2-C ) :   1.4625 B(  1-N ,  3-N ) :   0.1166
B(  2-C ,  3-N ) :   1.3409 B(  2-C ,  8-C ) :   1.0791 B(  3-N ,  4-C ) :   0.9027
B(  3-N , 19-C ) :   0.9157 B(  4-C ,  5-C ) :   1.0958 B(  4-C , 17-H ) :   0.9035
B(  4-C , 18-H ) :   0.9143 B(  5-C ,  6-C ) :   1.1001 B(  5-C , 15-H ) :   0.9174
B(  5-C , 16-H ) :   0.9120 B(  6-C ,  7-C ) :   1.0955 B(  6-C , 13-H ) :   0.9194
B(  6-C , 14-H ) :   0.9244 B(  7-C ,  8-C ) :   1.0718 B(  7-C , 11-H ) :   0.9210
B(  7-C , 12-H ) :   0.9161 B(  8-C ,  9-H ) :   0.8873 B(  8-C , 10-H ) :   0.8867
B( 19-C , 20-C ) :   1.0920 B( 19-C , 23-H ) :   0.9073 B( 19-C , 24-H ) :   0.9071
B( 20-C , 21-H ) :   0.9084 B( 20-C , 22-H ) :   0.9105

Dispersion correction           -0.025665125
FINAL SINGLE POINT ENERGY      -460.946367720456

DIPOLE MOMENT
-------------

Method             : SCF
Type of density    : Electron Density
Multiplicity       :   2
Irrep              :   0
Energy             :  -460.9207025957658743 Eh
Relativity type    :
Basis              : AO
                                X                 Y                 Z
Electronic contribution:      4.246333775      -2.201301041      -0.286962972
Nuclear contribution   :     -3.417837470       2.910727643       0.034174869
                        -----------------------------------------
Total Dipole Moment    :      0.828496305       0.709426601      -0.252788103
                        -----------------------------------------
Magnitude (a.u.)       :      1.119640146
Magnitude (Debye)      :      2.845899083

VIBRATIONAL FREQUENCIES
-----------------------

Scaling factor for frequencies =  1.000000000  (already applied!)

     0:       0.00 cm**-1
     1:       0.00 cm**-1
     2:       0.00 cm**-1
     3:       0.00 cm**-1
     4:       0.00 cm**-1
     5:       0.00 cm**-1
     6:      81.24 cm**-1
     7:      92.04 cm**-1
     8:     193.62 cm**-1
     9:     197.30 cm**-1
    10:     253.64 cm**-1
    11:     280.66 cm**-1
    12:     335.83 cm**-1
    13:     355.11 cm**-1
    14:     387.63 cm**-1
    15:     405.08 cm**-1
    16:     492.14 cm**-1
    17:     502.51 cm**-1
    18:     544.59 cm**-1
    19:     578.62 cm**-1
    20:     697.82 cm**-1
    21:     740.83 cm**-1
    22:     819.71 cm**-1
    23:     825.16 cm**-1
    24:     845.08 cm**-1
    25:     853.83 cm**-1
    26:     885.50 cm**-1
    27:     919.14 cm**-1
    28:     928.16 cm**-1
    29:     976.60 cm**-1
    30:     991.57 cm**-1
    31:    1015.52 cm**-1
    32:    1034.82 cm**-1
    33:    1079.85 cm**-1
    34:    1096.09 cm**-1
    35:    1114.89 cm**-1
    36:    1131.58 cm**-1
    37:    1136.17 cm**-1
    38:    1170.98 cm**-1
    39:    1181.90 cm**-1
    40:    1216.07 cm**-1
    41:    1232.39 cm**-1
    42:    1244.48 cm**-1
    43:    1272.32 cm**-1
    44:    1294.66 cm**-1
    45:    1301.46 cm**-1
    46:    1324.30 cm**-1
    47:    1349.13 cm**-1
    48:    1355.05 cm**-1
    49:    1368.26 cm**-1
    50:    1380.34 cm**-1
    51:    1382.35 cm**-1
    52:    1395.41 cm**-1
    53:    1400.69 cm**-1
    54:    1404.03 cm**-1
    55:    1422.42 cm**-1
    56:    1446.57 cm**-1
    57:    1452.85 cm**-1
    58:    1457.18 cm**-1
    59:    1465.76 cm**-1
    60:    1468.29 cm**-1
    61:    1474.89 cm**-1
    62:    1480.10 cm**-1
    63:    1513.07 cm**-1
    64:    1564.22 cm**-1
    65:    3015.63 cm**-1
    66:    3044.46 cm**-1
    67:    3044.55 cm**-1
    68:    3052.51 cm**-1
    69:    3053.52 cm**-1
    70:    3059.21 cm**-1
    71:    3060.76 cm**-1
    72:    3068.02 cm**-1
    73:    3079.63 cm**-1
    74:    3117.17 cm**-1
    75:    3119.93 cm**-1
    76:    3126.85 cm**-1
    77:    3129.48 cm**-1
    78:    3145.74 cm**-1
    79:    3150.18 cm**-1
    80:    3157.66 cm**-1

IR SPECTRUM
-----------

 Mode   freq       eps      Int      T**2         TX        TY        TZ
       cm**-1   L/(mol*cm) km/mol    a.u.
----------------------------------------------------------------------------
  6:     81.24   0.000230    1.16  0.000883  ( 0.010321 -0.022373 -0.016604)
  7:     92.04   0.000055    0.28  0.000186  ( 0.009569  0.008921 -0.003911)
  8:    193.62   0.001058    5.35  0.001706  ( 0.008916 -0.033792 -0.022010)
  9:    197.30   0.001371    6.93  0.002169  ( 0.015821 -0.039781 -0.018324)
 10:    253.64   0.000488    2.46  0.000600  (-0.008565  0.022888  0.001604)
 11:    280.66   0.000365    1.85  0.000406  (-0.012732 -0.004295  0.015016)
 12:    335.83   0.001058    5.34  0.000983  ( 0.004527 -0.025172 -0.018127)
 13:    355.11   0.000471    2.38  0.000414  ( 0.008765 -0.013069 -0.012909)
 14:    387.63   0.000899    4.55  0.000724  ( 0.001863 -0.025543  0.008257)
 15:    405.08   0.000706    3.57  0.000544  ( 0.013144 -0.014137  0.013075)
 16:    492.14   0.000257    1.30  0.000163  ( 0.003724  0.012156  0.001096)
 17:    502.51   0.000808    4.08  0.000502  ( 0.007638 -0.017705 -0.011395)
 18:    544.59   0.000937    4.74  0.000537  (-0.008184  0.021381  0.003604)
 19:    578.62   0.003150   15.92  0.001699  (-0.017922  0.034490  0.013717)
 20:    697.82   0.001776    8.97  0.000794  ( 0.009720 -0.026338  0.002435)
 21:    740.83   0.000621    3.14  0.000262  ( 0.005167 -0.003110  0.015011)
 22:    819.71   0.000235    1.19  0.000090  ( 0.000773  0.008926 -0.003042)
 23:    825.16   0.000085    0.43  0.000032  (-0.003749  0.003580  0.002299)
 24:    845.08   0.002215   11.20  0.000818  (-0.003635  0.027384 -0.007416)
 25:    853.83   0.000633    3.20  0.000232  ( 0.009523 -0.007070 -0.009531)
 26:    885.50   0.001590    8.03  0.000560  ( 0.018351 -0.009848  0.011249)
 27:    919.14   0.001405    7.10  0.000477  ( 0.005549 -0.018320  0.010523)
 28:    928.16   0.000677    3.42  0.000228  (-0.012477  0.007812 -0.003292)
 29:    976.60   0.002900   14.65  0.000927  ( 0.020446 -0.021069  0.008038)
 30:    991.57   0.002117   10.70  0.000666  ( 0.023113  0.001895  0.011341)
 31:   1015.52   0.001827    9.23  0.000561  (-0.003852  0.020962 -0.010357)
 32:   1034.82   0.000339    1.71  0.000102  ( 0.006114 -0.000969 -0.007999)
 33:   1079.85   0.001401    7.08  0.000405  (-0.013701  0.008957 -0.011698)
 34:   1096.09   0.000249    1.26  0.000071  ( 0.004232 -0.002849 -0.006706)
 35:   1114.89   0.002725   13.77  0.000763  ( 0.004932 -0.027109  0.001882)
 36:   1131.58   0.000111    0.56  0.000031  (-0.005494 -0.000506  0.000538)
 37:   1136.17   0.000400    2.02  0.000110  (-0.008954 -0.000400  0.005431)
 38:   1170.98   0.003181   16.07  0.000848  (-0.018576 -0.022023  0.004190)
 39:   1181.90   0.000849    4.29  0.000224  ( 0.007540 -0.012912  0.000833)
 40:   1216.07   0.004157   21.01  0.001067  ( 0.029619 -0.012358  0.006055)
 41:   1232.39   0.000415    2.10  0.000105  (-0.008105 -0.005052  0.003733)
 42:   1244.48   0.002083   10.52  0.000522  (-0.018385  0.013499  0.001423)
 43:   1272.32   0.000303    1.53  0.000074  (-0.004768 -0.007044  0.001360)
 44:   1294.66   0.001922    9.72  0.000463  ( 0.003620  0.016898 -0.012835)
 45:   1301.46   0.000557    2.81  0.000133  ( 0.005665 -0.006328 -0.007832)
 46:   1324.30   0.000682    3.45  0.000161  (-0.000954  0.011542  0.005166)
 47:   1349.13   0.001917    9.69  0.000443  (-0.006431  0.020046  0.000342)
 48:   1355.05   0.001567    7.92  0.000361  ( 0.016415 -0.009260 -0.002370)
 49:   1368.26   0.001393    7.04  0.000318  ( 0.005947  0.015398 -0.006719)
 50:   1380.34   0.000913    4.62  0.000206  (-0.002121  0.014003 -0.002426)
 51:   1382.35   0.000191    0.97  0.000043  (-0.002441 -0.006077  0.000547)
 52:   1395.41   0.002857   14.44  0.000639  (-0.013330  0.016597 -0.013628)
 53:   1400.69   0.000364    1.84  0.000081  ( 0.000942 -0.004906  0.007499)
 54:   1404.03   0.004292   21.69  0.000954  ( 0.025532 -0.009998  0.014219)
 55:   1422.42   0.000046    0.23  0.000010  ( 0.002379 -0.002100  0.000009)
 56:   1446.57   0.001153    5.83  0.000249  ( 0.005354 -0.013659 -0.005784)
 57:   1452.85   0.001732    8.76  0.000372  (-0.011674  0.013441  0.007428)
 58:   1457.18   0.001910    9.65  0.000409  (-0.011667 -0.008190 -0.014347)
 59:   1465.76   0.005596   28.28  0.001191  ( 0.031004  0.008324 -0.012680)
 60:   1468.29   0.002588   13.08  0.000550  (-0.008500  0.015355 -0.015557)
 61:   1474.89   0.003625   18.32  0.000767  ( 0.011773 -0.003375 -0.024838)
 62:   1480.10   0.001774    8.96  0.000374  (-0.003111  0.006392  0.017985)
 63:   1513.07   0.007417   37.48  0.001530  ( 0.030621  0.003993  0.024005)
 64:   1564.22   0.012612   63.73  0.002516  ( 0.035158  0.033931  0.011341)
 65:   3015.63   0.002356   11.91  0.000244  ( 0.015508  0.001191  0.001367)
 66:   3044.46   0.000891    4.50  0.000091  ( 0.009337  0.000570  0.001958)
 67:   3044.55   0.000675    3.41  0.000069  ( 0.004561 -0.004058  0.005646)
 68:   3052.51   0.001266    6.40  0.000129  ( 0.007425  0.004879  0.007104)
 69:   3053.52   0.002548   12.88  0.000260  ( 0.011936 -0.008915 -0.006203)
 70:   3059.21   0.001170    5.91  0.000119  (-0.000325  0.005405  0.009490)
 71:   3060.76   0.001184    5.99  0.000121  (-0.003710  0.006566 -0.007992)
 72:   3068.02   0.001005    5.08  0.000102  ( 0.002778  0.005566 -0.007968)
 73:   3079.63   0.000300    1.52  0.000030  ( 0.000229  0.001463 -0.005314)
 74:   3117.17   0.000717    3.62  0.000072  (-0.007924  0.001250  0.002728)
 75:   3119.93   0.000880    4.45  0.000088  ( 0.000881  0.003564 -0.008635)
 76:   3126.85   0.000995    5.03  0.000099  ( 0.003909  0.001440  0.009050)
 77:   3129.48   0.000129    0.65  0.000013  (-0.002563 -0.002501  0.000285)
 78:   3145.74   0.000196    0.99  0.000019  ( 0.000319 -0.004350 -0.000665)
 79:   3150.18   0.000128    0.65  0.000013  ( 0.003471 -0.000557 -0.000603)
 80:   3157.66   0.000394    1.99  0.000039  (-0.000483  0.006201 -0.000530)

--------------------------
THERMOCHEMISTRY AT 298.15K
--------------------------

Temperature         ...   298.15 K
Pressure            ...     1.00 atm
Total Mass          ...   152.24 AMU
Quasi RRHO          ...     True
Cut-Off Frequency   ...     1.00 cm^-1

Throughout the following assumptions are being made:
  (1) The electronic state is orbitally nondegenerate
      but the spin degeneracy is treated
  (2) There are no thermally accessible electronically excited states
  (3) Hindered rotations indicated by low frequency modes are not
      treated as such but are treated as vibrations and this may
      cause some error
  (4) All equations used are the standard statistical mechanics
      equations for an ideal gas
  (5) All vibrations are strictly harmonic

freq.      81.24  E(vib)   ...       0.48
freq.      92.04  E(vib)   ...       0.47
freq.     193.62  E(vib)   ...       0.36
freq.     197.30  E(vib)   ...       0.35
freq.     253.64  E(vib)   ...       0.30
freq.     280.66  E(vib)   ...       0.28
freq.     335.83  E(vib)   ...       0.24
freq.     355.11  E(vib)   ...       0.22
freq.     387.63  E(vib)   ...       0.20
freq.     405.08  E(vib)   ...       0.19
freq.     492.14  E(vib)   ...       0.14
freq.     502.51  E(vib)   ...       0.14
freq.     544.59  E(vib)   ...       0.12
freq.     578.62  E(vib)   ...       0.11
freq.     697.82  E(vib)   ...       0.07
freq.     740.83  E(vib)   ...       0.06
freq.     819.71  E(vib)   ...       0.05
freq.     825.16  E(vib)   ...       0.04
freq.     845.08  E(vib)   ...       0.04
freq.     853.83  E(vib)   ...       0.04
freq.     885.50  E(vib)   ...       0.04
freq.     919.14  E(vib)   ...       0.03
freq.     928.16  E(vib)   ...       0.03
freq.     976.60  E(vib)   ...       0.03
freq.     991.57  E(vib)   ...       0.02
freq.    1015.52  E(vib)   ...       0.02
freq.    1034.82  E(vib)   ...       0.02
freq.    1079.85  E(vib)   ...       0.02
freq.    1096.09  E(vib)   ...       0.02
freq.    1114.89  E(vib)   ...       0.01
freq.    1131.58  E(vib)   ...       0.01
freq.    1136.17  E(vib)   ...       0.01
freq.    1170.98  E(vib)   ...       0.01
freq.    1181.90  E(vib)   ...       0.01
freq.    1216.07  E(vib)   ...       0.01
freq.    1232.39  E(vib)   ...       0.01
freq.    1244.48  E(vib)   ...       0.01
freq.    1272.32  E(vib)   ...       0.01
freq.    1294.66  E(vib)   ...       0.01
freq.    1301.46  E(vib)   ...       0.01
freq.    1324.30  E(vib)   ...       0.01
freq.    1349.13  E(vib)   ...       0.01
freq.    1355.05  E(vib)   ...       0.01
freq.    1368.26  E(vib)   ...       0.01
freq.    1380.34  E(vib)   ...       0.01
freq.    1382.35  E(vib)   ...       0.01
freq.    1395.41  E(vib)   ...       0.00
freq.    1400.69  E(vib)   ...       0.00
freq.    1404.03  E(vib)   ...       0.00
freq.    1422.42  E(vib)   ...       0.00
freq.    1446.57  E(vib)   ...       0.00
freq.    1452.85  E(vib)   ...       0.00
freq.    1457.18  E(vib)   ...       0.00
freq.    1465.76  E(vib)   ...       0.00
freq.    1468.29  E(vib)   ...       0.00
freq.    1474.89  E(vib)   ...       0.00
freq.    1480.10  E(vib)   ...       0.00
freq.    1513.07  E(vib)   ...       0.00
freq.    1564.22  E(vib)   ...       0.00
freq.    3015.63  E(vib)   ...       0.00
freq.    3044.46  E(vib)   ...       0.00
freq.    3044.55  E(vib)   ...       0.00
freq.    3052.51  E(vib)   ...       0.00
freq.    3053.52  E(vib)   ...       0.00
freq.    3059.21  E(vib)   ...       0.00
freq.    3060.76  E(vib)   ...       0.00
freq.    3068.02  E(vib)   ...       0.00
freq.    3079.63  E(vib)   ...       0.00
freq.    3117.17  E(vib)   ...       0.00
freq.    3119.93  E(vib)   ...       0.00
freq.    3126.85  E(vib)   ...       0.00
freq.    3129.48  E(vib)   ...       0.00
freq.    3145.74  E(vib)   ...       0.00
freq.    3150.18  E(vib)   ...       0.00
freq.    3157.66  E(vib)   ...       0.00

------------
INNER ENERGY
------------

The inner energy is: U= E(el) + E(ZPE) + E(vib) + E(rot) + E(trans)
    E(el)   - is the total energy from the electronic structure calculation
              = E(kin-el) + E(nuc-el) + E(el-el) + E(nuc-nuc)
    E(ZPE)  - the the zero temperature vibrational energy from the frequency calculation
    E(vib)  - the the finite temperature correction to E(ZPE) due to population
              of excited vibrational states
    E(rot)  - is the rotational thermal energy
    E(trans)- is the translational thermal energy

Summary of contributions to the inner energy U:
Electronic energy                ...   -460.94636772 Eh
Zero point energy                ...      0.24658158 Eh     154.73 kcal/mol
Thermal vibrational correction   ...      0.00691301 Eh       4.34 kcal/mol
Thermal rotational correction    ...      0.00141627 Eh       0.89 kcal/mol
Thermal translational correction ...      0.00141627 Eh       0.89 kcal/mol
-----------------------------------------------------------------------
Total thermal energy                   -460.69004058 Eh

Summary of corrections to the electronic energy:
(perhaps to be used in another calculation)
Total thermal correction                  0.00974555 Eh       6.12 kcal/mol
Non-thermal (ZPE) correction              0.24658158 Eh     154.73 kcal/mol
-----------------------------------------------------------------------
Total correction                          0.25632714 Eh     160.85 kcal/mol

--------
ENTHALPY
--------

The enthalpy is H = U + kB*T
                kB is Boltzmann's constant
Total thermal energy              ...   -460.69004058 Eh
Thermal Enthalpy correction       ...      0.00094421 Eh       0.59 kcal/mol
-----------------------------------------------------------------------
Total Enthalpy                    ...   -460.68909637 Eh

Note: Only C1 symmetry has been detected, increase convergence thresholds
      if your molecule has a higher symmetry. Symmetry factor of 1.0 is
      used for the rotational entropy correction.

Note: Rotational entropy computed according to Herzberg
Infrared and Raman Spectra, Chapter V,1, Van Nostrand Reinhold, 1945
Point Group:  C1, Symmetry Number:   1
Rotational constants in cm-1:     0.070248     0.029206     0.022723

Vibrational entropy computed according to the QRRHO of S. Grimme
Chem.Eur.J. 2012 18 9955 using a reference frequency of 100.0 cm-1

-------
ENTROPY
-------

The entropy contributions are T*S = T*(S(el)+S(vib)+S(rot)+S(trans))
     S(el)   - electronic entropy
     S(vib)  - vibrational entropy
     S(rot)  - rotational entropy

                             ****ORCA TERMINATED NORMALLY****
TOTAL RUN TIME: 0 days 0 hours 21 minutes 13 seconds 141 msec
