                         Program Version 6.0.0  -   RELEASE  -
|  1> !PBE0 def2-SV(p) Opt Freq d3 TightSCF SlowConv RIJCOSX defgrid2
|  2>
|  3> %pal
|  4> nprocs 4
|  5> end
|  6>
|  7> %scf
|  8> MaxIter 1500
|  9> end
| 10>
| 11> %maxcore 3000
| 12>
| 13>
| 14>
| 15> * xyz 0 1
| 16> C     1.5417998   -1.1316041   -0.4110845
| 17> C     2.9241904   -1.1168713   -0.4211916
| 18> C     3.6131459    0.0085393    0.0007757
| 19> C     2.9054125    1.1197138    0.4279624
| 20> C     1.5224446    1.1069506    0.4338819
| 21> C     0.8150118   -0.0222799    0.0219670
| 22> C    -0.6571419   -0.0400084    0.0297597
| 23> C    -1.3394383   -1.1385751    0.3508075
| 24> C    -2.8327002   -1.2381491    0.3727813
| 25> C    -3.5000318    0.1329006    0.3052056
| 26> C    -2.8056862    0.9867545   -0.7494312
| 27> C    -1.3622238    1.2440814   -0.3268794
| 28> H    -0.8164778    1.7477380   -1.1286716
| 29> H    -1.3573501    1.9097361    0.5423198
| 30> H    -3.3288503    1.9366114   -0.8774311
| 31> H    -2.8177711    0.4608746   -1.7065571
| 32> H    -4.5606508    0.0209289    0.0718613
| 33> H    -3.4182846    0.6266818    1.2759814
| 34> H    -3.1491942   -1.8454793   -0.4832069
| 35> H    -3.1489837   -1.7709300    1.2738266
| 36> H    -0.8110041   -2.0437793    0.6196621
| 37> H     0.9874986    1.9798916    0.7768359
| 38> H     3.4344125    2.0028477    0.7573962
| 39> H     4.6933297    0.0207579   -0.0073554
| 40> H     3.4678534   -1.9855755   -0.7648295
| 41> H     1.0143557   -2.0074540   -0.7597402
| 42> *
| 43>
| 44>                          ****END OF INPUT****
 Total Charge           Charge          ....    0
 Multiplicity           Mult            ....    1
 Number of Electrons    NEL             ....   86
Dispersion correction           -0.026008391
FINAL SINGLE POINT ENERGY      -464.808597409582
Dispersion correction             ... done (  0.0 sec)
Dispersion correction           -0.025835915
FINAL SINGLE POINT ENERGY      -464.811432871857
Dispersion correction             ... done (  0.1 sec)
Dispersion correction           -0.025809244
FINAL SINGLE POINT ENERGY      -464.811647400495
Dispersion correction             ... done (  0.1 sec)
FINAL SINGLE POINT ENERGY      -464.811725620880
Dispersion correction             ... done (  0.0 sec)
Dispersion correction           -0.025804522
FINAL SINGLE POINT ENERGY      -464.811732537928
Dispersion correction             ... done (  0.0 sec)
Dispersion correction           -0.025805649
FINAL SINGLE POINT ENERGY      -464.811734983005
Dispersion correction             ... done (  0.1 sec)
                    ***********************HURRAY********************

CARTESIAN COORDINATES (ANGSTROEM)
---------------------------------
  C      1.570850   -1.174744   -0.333214
  C      2.961920   -1.156516   -0.318601
  C      3.647827    0.008559    0.025990
  C      2.923619    1.154589    0.347857
  C      1.530604    1.134353    0.329935
  C      0.823285   -0.033976    0.003402
  C     -0.657413   -0.047333    0.005345
  C     -1.352824   -1.167584    0.279621
  C     -2.848537   -1.258286    0.308474
  C     -3.519902    0.110871    0.315651
  C     -2.833812    1.043418   -0.673274
  C     -1.371424    1.250266   -0.295896
  H     -0.839915    1.781170   -1.106183
  H     -1.309897    1.917654    0.586765
  H     -3.351484    2.017293   -0.719734
  H     -2.890538    0.604903   -1.687629
  H     -4.594711    0.011387    0.084676
  H     -3.452922    0.547726    1.330018
  H     -3.190029   -1.842801   -0.570886
  H     -3.166023   -1.849415    1.187374
  H     -0.804746   -2.087688    0.513970
  H      0.983629    2.043900    0.591449
  H      3.447409    2.077177    0.616161
  H      4.741650    0.024777    0.033491
  H      3.517259   -2.058912   -0.592210
  H      1.049791   -2.086484   -0.637905

 Multiplicity           Mult            ....    1
 Number of Electrons    NEL             ....   86
 Basis Dimension        Dim             ....  196

ORBITAL ENERGIES
----------------

  NO   OCC          E(Eh)            E(eV)
   0   2.0000     -10.242799      -278.7207
   1   2.0000     -10.237871      -278.5866
   2   2.0000     -10.233488      -278.4674
   3   2.0000     -10.233324      -278.4629
   4   2.0000     -10.232202      -278.4324
   5   2.0000     -10.231918      -278.4247
   6   2.0000     -10.231575      -278.4153
   7   2.0000     -10.229882      -278.3692
   8   2.0000     -10.228989      -278.3449
   9   2.0000     -10.228046      -278.3193
  10   2.0000     -10.225574      -278.2520
  11   2.0000     -10.225400      -278.2473
  12   2.0000      -0.880359       -23.9558
  13   2.0000      -0.853235       -23.2177
  14   2.0000      -0.789865       -21.4933
  15   2.0000      -0.763551       -20.7773
  16   2.0000      -0.754316       -20.5260
  17   2.0000      -0.731589       -19.9076
  18   2.0000      -0.643844       -17.5199
  19   2.0000      -0.632512       -17.2115
  20   2.0000      -0.604029       -16.4365
  21   2.0000      -0.593617       -16.1531
  22   2.0000      -0.540621       -14.7110
  23   2.0000      -0.523614       -14.2483
  24   2.0000      -0.491546       -13.3756
  25   2.0000      -0.470631       -12.8065
  26   2.0000      -0.466719       -12.7001
  27   2.0000      -0.446964       -12.1625
  28   2.0000      -0.441946       -12.0260
  29   2.0000      -0.431385       -11.7386
  30   2.0000      -0.425830       -11.5874
  31   2.0000      -0.411252       -11.1907
  32   2.0000      -0.400064       -10.8863
  33   2.0000      -0.392912       -10.6917
  34   2.0000      -0.377157       -10.2630
  35   2.0000      -0.362714        -9.8700
  36   2.0000      -0.353931        -9.6309
  37   2.0000      -0.339347        -9.2341
  38   2.0000      -0.329228        -8.9587
  39   2.0000      -0.319880        -8.7044
  40   2.0000      -0.287824        -7.8321
  41   2.0000      -0.263559        -7.1718
  42   2.0000      -0.229242        -6.2380
  43   0.0000      -0.022108        -0.6016
  44   0.0000      -0.000030        -0.0008
  45   0.0000       0.048673         1.3245
  46   0.0000       0.067807         1.8451
  47   0.0000       0.077436         2.1071

MULLIKEN ATOMIC CHARGES
-----------------------
   0 C :   -0.148527
   1 C :   -0.089160
   2 C :   -0.093855
   3 C :   -0.082285
   4 C :   -0.160218
   5 C :    0.089779
   6 C :   -0.037371
   7 C :   -0.227890
   8 C :   -0.160564
   9 C :   -0.222343
  10 C :   -0.203503
  11 C :   -0.184508
  12 H :    0.127829
  13 H :    0.127061
  14 H :    0.114009
  15 H :    0.116431
  16 H :    0.115510
  17 H :    0.115144
  18 H :    0.123400
  19 H :    0.121139
  20 H :    0.098787
  21 H :    0.090405
  22 H :    0.092552
  23 H :    0.094810
  24 H :    0.093021
  25 H :    0.090347
Sum of atomic charges:    0.0000000

LOEWDIN ATOMIC CHARGES
----------------------
   0 C :   -0.118942
   1 C :   -0.127350
   2 C :   -0.133596
   3 C :   -0.126805
   4 C :   -0.125216
   5 C :   -0.030269
   6 C :   -0.054893
   7 C :   -0.136670
   8 C :   -0.227408
   9 C :   -0.228518
  10 C :   -0.225343
  11 C :   -0.219220
  12 H :    0.128367
  13 H :    0.127670
  14 H :    0.119753
  15 H :    0.120191
  16 H :    0.119634
  17 H :    0.119503
  18 H :    0.128231
  19 H :    0.127046
  20 H :    0.123773
  21 H :    0.127925
  22 H :    0.127981
  23 H :    0.127903
  24 H :    0.128143
  25 H :    0.128111

  Mayer bond orders larger than 0.100000
B(  0-C ,  1-C ) :   1.4050 B(  0-C ,  5-C ) :   1.3870 B(  0-C , 25-H ) :   0.9508
B(  1-C ,  2-C ) :   1.3823 B(  1-C , 24-H ) :   0.9616 B(  2-C ,  3-C ) :   1.3946
B(  2-C , 23-H ) :   0.9643 B(  3-C ,  4-C ) :   1.3933 B(  3-C , 22-H ) :   0.9617
B(  4-C ,  5-C ) :   1.3837 B(  4-C , 21-H ) :   0.9506 B(  5-C ,  6-C ) :   1.0359
B(  6-C ,  7-C ) :   1.8949 B(  6-C , 11-C ) :   1.0511 B(  7-C ,  8-C ) :   1.0424
B(  7-C , 20-H ) :   0.9228 B(  8-C ,  9-C ) :   1.1060 B(  8-C , 18-H ) :   0.9057
B(  8-C , 19-H ) :   0.9217 B(  9-C , 10-C ) :   1.0808 B(  9-C , 16-H ) :   0.9314
B(  9-C , 17-H ) :   0.9331 B( 10-C , 11-C ) :   1.1007 B( 10-C , 14-H ) :   0.9312
B( 10-C , 15-H ) :   0.9323 B( 11-C , 12-H ) :   0.9146 B( 11-C , 13-H ) :   0.8918

Dispersion correction           -0.025805290
FINAL SINGLE POINT ENERGY      -464.811735825910

DIPOLE MOMENT
-------------

Method             : SCF
Type of density    : Electron Density
Multiplicity       :   1
Irrep              :   0
Energy             :  -464.7859305359475570 Eh
Relativity type    :
Basis              : AO
                                X                 Y                 Z
Electronic contribution:      9.058545812      -1.050976668       0.302140545
Nuclear contribution   :     -9.297439936       1.076513750      -0.312023061
                        -----------------------------------------
Total Dipole Moment    :     -0.238894124       0.025537082      -0.009882516
                        -----------------------------------------
Magnitude (a.u.)       :      0.240458331
Magnitude (Debye)      :      0.611196506

VIBRATIONAL FREQUENCIES
-----------------------

Scaling factor for frequencies =  1.000000000  (already applied!)

     0:       0.00 cm**-1
     1:       0.00 cm**-1
     2:       0.00 cm**-1
     3:       0.00 cm**-1
     4:       0.00 cm**-1
     5:       0.00 cm**-1
     6:      51.34 cm**-1
     7:      84.41 cm**-1
     8:     137.97 cm**-1
     9:     177.49 cm**-1
    10:     262.11 cm**-1
    11:     287.88 cm**-1
    12:     322.94 cm**-1
    13:     383.04 cm**-1
    14:     418.96 cm**-1
    15:     457.09 cm**-1
    16:     491.43 cm**-1
    17:     533.70 cm**-1
    18:     568.50 cm**-1
    19:     631.66 cm**-1
    20:     666.87 cm**-1
    21:     720.13 cm**-1
    22:     767.62 cm**-1
    23:     787.19 cm**-1
    24:     823.85 cm**-1
    25:     860.46 cm**-1
    26:     874.89 cm**-1
    27:     880.65 cm**-1
    28:     937.58 cm**-1
    29:     945.05 cm**-1
    30:     964.01 cm**-1
    31:     968.14 cm**-1
    32:     997.69 cm**-1
    33:    1014.40 cm**-1
    34:    1020.65 cm**-1
    35:    1030.46 cm**-1
    36:    1070.18 cm**-1
    37:    1091.36 cm**-1
    38:    1103.52 cm**-1
    39:    1110.80 cm**-1
    40:    1115.87 cm**-1
    41:    1159.43 cm**-1
    42:    1172.68 cm**-1
    43:    1203.67 cm**-1
    44:    1218.30 cm**-1
    45:    1273.26 cm**-1
    46:    1285.34 cm**-1
    47:    1314.13 cm**-1
    48:    1325.15 cm**-1
    49:    1339.75 cm**-1
    50:    1376.23 cm**-1
    51:    1396.62 cm**-1
    52:    1399.21 cm**-1
    53:    1402.04 cm**-1
    54:    1417.09 cm**-1
    55:    1455.48 cm**-1
    56:    1464.95 cm**-1
    57:    1472.57 cm**-1
    58:    1486.20 cm**-1
    59:    1494.78 cm**-1
    60:    1549.49 cm**-1
    61:    1663.45 cm**-1
    62:    1695.01 cm**-1
    63:    1744.01 cm**-1
    64:    3005.61 cm**-1
    65:    3016.64 cm**-1
    66:    3036.41 cm**-1
    67:    3039.80 cm**-1
    68:    3067.88 cm**-1
    69:    3079.87 cm**-1
    70:    3096.54 cm**-1
    71:    3101.20 cm**-1
    72:    3177.01 cm**-1
    73:    3190.67 cm**-1
    74:    3198.92 cm**-1
    75:    3209.96 cm**-1
    76:    3216.18 cm**-1
    77:    3221.83 cm**-1

IR SPECTRUM
-----------

 Mode   freq       eps      Int      T**2         TX        TY        TZ
       cm**-1   L/(mol*cm) km/mol    a.u.
----------------------------------------------------------------------------
  6:     51.34   0.000006    0.03  0.000037  (-0.003566 -0.004091  0.002779)
  7:     84.41   0.000076    0.38  0.000280  ( 0.000443  0.002002  0.016599)
  8:    137.97   0.000066    0.33  0.000148  (-0.005202 -0.008653  0.006799)
  9:    177.49   0.000258    1.30  0.000453  (-0.005115 -0.004158  0.020240)
 10:    262.11   0.000047    0.24  0.000056  (-0.004498 -0.004320  0.004110)
 11:    287.88   0.000076    0.38  0.000082  (-0.008201 -0.000804  0.003751)
 12:    322.94   0.000090    0.45  0.000087  ( 0.006340 -0.001914 -0.006537)
 13:    383.04   0.000080    0.41  0.000065  ( 0.007370 -0.000998 -0.003173)
 14:    418.96   0.000003    0.01  0.000002  ( 0.001099 -0.000330 -0.000869)
 15:    457.09   0.000488    2.47  0.000333  ( 0.003601  0.004211  0.017397)
 16:    491.43   0.000255    1.29  0.000162  ( 0.008778 -0.004361  0.008114)
 17:    533.70   0.000363    1.83  0.000212  (-0.000986  0.002546 -0.014301)
 18:    568.50   0.000528    2.67  0.000290  (-0.005261  0.013088 -0.009546)
 19:    631.66   0.000010    0.05  0.000005  (-0.001977 -0.001072  0.000194)
 20:    666.87   0.001376    6.96  0.000644  ( 0.022816  0.002237  0.010883)
 21:    720.13   0.007009   35.42  0.003037  (-0.002251  0.016872 -0.052418)
 22:    767.62   0.002885   14.58  0.001173  ( 0.002774  0.002853 -0.034016)
 23:    787.19   0.004103   20.73  0.001626  (-0.005021 -0.007288  0.039346)
 24:    823.85   0.000784    3.96  0.000297  (-0.014683 -0.004337 -0.007914)
 25:    860.46   0.000097    0.49  0.000035  ( 0.003380  0.004524  0.001834)
 26:    874.89   0.000571    2.89  0.000204  ( 0.001117  0.010970  0.009062)
 27:    880.65   0.000076    0.39  0.000027  ( 0.004542 -0.000166 -0.002525)
 28:    937.58   0.000701    3.54  0.000233  ( 0.005431  0.013656 -0.004177)
 29:    945.05   0.000896    4.53  0.000296  ( 0.002524 -0.003724 -0.016601)
 30:    964.01   0.000035    0.18  0.000011  ( 0.002907 -0.000831  0.001508)
 31:    968.14   0.000287    1.45  0.000093  (-0.003143 -0.008150  0.004038)
 32:    997.69   0.000024    0.12  0.000007  ( 0.002519 -0.001053 -0.000188)
 33:   1014.40   0.000228    1.15  0.000070  (-0.007360  0.002355  0.003237)
 34:   1020.65   0.000009    0.04  0.000003  ( 0.001168 -0.000268  0.001106)
 35:   1030.46   0.000512    2.59  0.000155  (-0.011671  0.001564  0.004056)
 36:   1070.18   0.000872    4.41  0.000254  ( 0.015891  0.001006  0.000874)
 37:   1091.36   0.001112    5.62  0.000318  (-0.009785 -0.014901  0.000446)
 38:   1103.52   0.000125    0.63  0.000035  (-0.005199  0.001800  0.002224)
 39:   1110.80   0.000734    3.71  0.000206  (-0.009478 -0.010787 -0.000147)
 40:   1115.87   0.000745    3.77  0.000208  ( 0.000393 -0.013870 -0.003995)
 41:   1159.43   0.001172    5.92  0.000316  (-0.011057 -0.004250  0.013236)
 42:   1172.68   0.000009    0.04  0.000002  ( 0.000350  0.001337  0.000673)
 43:   1203.67   0.000017    0.09  0.000005  ( 0.001415 -0.001590 -0.000052)
 44:   1218.30   0.000086    0.43  0.000022  ( 0.004571  0.001039  0.000096)
 45:   1273.26   0.000649    3.28  0.000159  (-0.012603  0.000562 -0.000125)
 46:   1285.34   0.000147    0.74  0.000036  (-0.001510 -0.000321  0.005769)
 47:   1314.13   0.000660    3.34  0.000157  (-0.001136 -0.010526  0.006686)
 48:   1325.15   0.000246    1.24  0.000058  (-0.001926 -0.007326 -0.000770)
 49:   1339.75   0.000244    1.23  0.000057  ( 0.004609  0.005960  0.000146)
 50:   1376.23   0.000231    1.17  0.000052  ( 0.004979  0.005105 -0.001206)
 51:   1396.62   0.000146    0.74  0.000033  ( 0.005248  0.002117 -0.000796)
 52:   1399.21   0.000940    4.75  0.000210  (-0.014237 -0.001891  0.001849)
 53:   1402.04   0.000055    0.28  0.000012  ( 0.003376 -0.000876  0.000374)
 54:   1417.09   0.001237    6.25  0.000272  (-0.016441 -0.000492  0.001328)
 55:   1455.48   0.000441    2.23  0.000094  ( 0.001760 -0.009458 -0.001390)
 56:   1464.95   0.001798    9.08  0.000383  (-0.013436 -0.013958 -0.002758)
 57:   1472.57   0.001440    7.28  0.000305  ( 0.001181 -0.001329 -0.017376)
 58:   1486.20   0.000578    2.92  0.000121  (-0.010490  0.003333 -0.000448)
 59:   1494.78   0.001187    6.00  0.000248  (-0.005056  0.014771  0.002035)
 60:   1549.49   0.003207   16.21  0.000646  (-0.025138 -0.003707  0.000432)
 61:   1663.45   0.000357    1.81  0.000067  (-0.002342 -0.007251 -0.002990)
 62:   1695.01   0.001971    9.96  0.000363  ( 0.018874  0.002313 -0.001154)
 63:   1744.01   0.000940    4.75  0.000168  ( 0.012725 -0.002294  0.000988)
 64:   3005.61   0.005664   28.63  0.000588  (-0.013060 -0.019615 -0.005728)
 65:   3016.64   0.003831   19.36  0.000396  (-0.011008 -0.015654 -0.005488)
 66:   3036.41   0.004385   22.16  0.000451  ( 0.018683 -0.009471  0.003457)
 67:   3039.80   0.004313   21.80  0.000443  ( 0.001950 -0.001025 -0.020927)
 68:   3067.88   0.005965   30.15  0.000607  (-0.012913 -0.009463  0.018720)
 69:   3079.87   0.003532   17.85  0.000358  (-0.005706 -0.009640  0.015243)
 70:   3096.54   0.008305   41.97  0.000837  (-0.025444  0.013751 -0.000679)
 71:   3101.20   0.006506   32.88  0.000655  (-0.010186 -0.015435 -0.017682)
 72:   3177.01   0.002617   13.22  0.000257  (-0.011890  0.010257 -0.003233)
 73:   3190.67   0.000384    1.94  0.000038  ( 0.006060  0.000874 -0.000213)
 74:   3198.92   0.000556    2.81  0.000054  ( 0.000536  0.007000  0.002231)
 75:   3209.96   0.002435   12.31  0.000237  ( 0.014395  0.005172  0.001669)
 76:   3216.18   0.003957   20.00  0.000384  ( 0.007981 -0.017211 -0.004905)
 77:   3221.83   0.001357    6.86  0.000131  (-0.010605 -0.004224 -0.001047)

--------------------------
THERMOCHEMISTRY AT 298.15K
--------------------------

Temperature         ...   298.15 K
Pressure            ...     1.00 atm
Total Mass          ...   158.24 AMU
Quasi RRHO          ...     True
Cut-Off Frequency   ...     1.00 cm^-1

Throughout the following assumptions are being made:
  (1) The electronic state is orbitally nondegenerate
  (2) There are no thermally accessible electronically excited states
  (3) Hindered rotations indicated by low frequency modes are not
      treated as such but are treated as vibrations and this may
      cause some error
  (4) All equations used are the standard statistical mechanics
      equations for an ideal gas
  (5) All vibrations are strictly harmonic

freq.      51.34  E(vib)   ...       0.52
freq.      84.41  E(vib)   ...       0.48
freq.     137.97  E(vib)   ...       0.42
freq.     177.49  E(vib)   ...       0.37
freq.     262.11  E(vib)   ...       0.29
freq.     287.88  E(vib)   ...       0.27
freq.     322.94  E(vib)   ...       0.25
freq.     383.04  E(vib)   ...       0.20
freq.     418.96  E(vib)   ...       0.18
freq.     457.09  E(vib)   ...       0.16
freq.     491.43  E(vib)   ...       0.14
freq.     533.70  E(vib)   ...       0.13
freq.     568.50  E(vib)   ...       0.11
freq.     631.66  E(vib)   ...       0.09
freq.     666.87  E(vib)   ...       0.08
freq.     720.13  E(vib)   ...       0.07
freq.     767.62  E(vib)   ...       0.06
freq.     787.19  E(vib)   ...       0.05
freq.     823.85  E(vib)   ...       0.05
freq.     860.46  E(vib)   ...       0.04
freq.     874.89  E(vib)   ...       0.04
freq.     880.65  E(vib)   ...       0.04
freq.     937.58  E(vib)   ...       0.03
freq.     945.05  E(vib)   ...       0.03
freq.     964.01  E(vib)   ...       0.03
freq.     968.14  E(vib)   ...       0.03
freq.     997.69  E(vib)   ...       0.02
freq.    1014.40  E(vib)   ...       0.02
freq.    1020.65  E(vib)   ...       0.02
freq.    1030.46  E(vib)   ...       0.02
freq.    1070.18  E(vib)   ...       0.02
freq.    1091.36  E(vib)   ...       0.02
freq.    1103.52  E(vib)   ...       0.02
freq.    1110.80  E(vib)   ...       0.01
freq.    1115.87  E(vib)   ...       0.01
freq.    1159.43  E(vib)   ...       0.01
freq.    1172.68  E(vib)   ...       0.01
freq.    1203.67  E(vib)   ...       0.01
freq.    1218.30  E(vib)   ...       0.01
freq.    1273.26  E(vib)   ...       0.01
freq.    1285.34  E(vib)   ...       0.01
freq.    1314.13  E(vib)   ...       0.01
freq.    1325.15  E(vib)   ...       0.01
freq.    1339.75  E(vib)   ...       0.01
freq.    1376.23  E(vib)   ...       0.01
freq.    1396.62  E(vib)   ...       0.00
freq.    1399.21  E(vib)   ...       0.00
freq.    1402.04  E(vib)   ...       0.00
freq.    1417.09  E(vib)   ...       0.00
freq.    1455.48  E(vib)   ...       0.00
freq.    1464.95  E(vib)   ...       0.00
freq.    1472.57  E(vib)   ...       0.00
freq.    1486.20  E(vib)   ...       0.00
freq.    1494.78  E(vib)   ...       0.00
freq.    1549.49  E(vib)   ...       0.00
freq.    1663.45  E(vib)   ...       0.00
freq.    1695.01  E(vib)   ...       0.00
freq.    1744.01  E(vib)   ...       0.00
freq.    3005.61  E(vib)   ...       0.00
freq.    3016.64  E(vib)   ...       0.00
freq.    3036.41  E(vib)   ...       0.00
freq.    3039.80  E(vib)   ...       0.00
freq.    3067.88  E(vib)   ...       0.00
freq.    3079.87  E(vib)   ...       0.00
freq.    3096.54  E(vib)   ...       0.00
freq.    3101.20  E(vib)   ...       0.00
freq.    3177.01  E(vib)   ...       0.00
freq.    3190.67  E(vib)   ...       0.00
freq.    3198.92  E(vib)   ...       0.00
freq.    3209.96  E(vib)   ...       0.00
freq.    3216.18  E(vib)   ...       0.00
freq.    3221.83  E(vib)   ...       0.00

------------
INNER ENERGY
------------

The inner energy is: U= E(el) + E(ZPE) + E(vib) + E(rot) + E(trans)
    E(el)   - is the total energy from the electronic structure calculation
              = E(kin-el) + E(nuc-el) + E(el-el) + E(nuc-nuc)
    E(ZPE)  - the the zero temperature vibrational energy from the frequency calculation
    E(vib)  - the the finite temperature correction to E(ZPE) due to population
              of excited vibrational states
    E(rot)  - is the rotational thermal energy
    E(trans)- is the translational thermal energy

Summary of contributions to the inner energy U:
Electronic energy                ...   -464.81173583 Eh
Zero point energy                ...      0.22901794 Eh     143.71 kcal/mol
Thermal vibrational correction   ...      0.00707896 Eh       4.44 kcal/mol
Thermal rotational correction    ...      0.00141627 Eh       0.89 kcal/mol
Thermal translational correction ...      0.00141627 Eh       0.89 kcal/mol
-----------------------------------------------------------------------
Total thermal energy                   -464.57280638 Eh

Summary of corrections to the electronic energy:
(perhaps to be used in another calculation)
Total thermal correction                  0.00991150 Eh       6.22 kcal/mol
Non-thermal (ZPE) correction              0.22901794 Eh     143.71 kcal/mol
-----------------------------------------------------------------------
Total correction                          0.23892944 Eh     149.93 kcal/mol

--------
ENTHALPY
--------

The enthalpy is H = U + kB*T
                kB is Boltzmann's constant
Total thermal energy              ...   -464.57280638 Eh
Thermal Enthalpy correction       ...      0.00094421 Eh       0.59 kcal/mol
-----------------------------------------------------------------------
Total Enthalpy                    ...   -464.57186218 Eh

Note: Only C1 symmetry has been detected, increase convergence thresholds
      if your molecule has a higher symmetry. Symmetry factor of 1.0 is
      used for the rotational entropy correction.

Note: Rotational entropy computed according to Herzberg
Infrared and Raman Spectra, Chapter V,1, Van Nostrand Reinhold, 1945
Point Group:  C1, Symmetry Number:   1
Rotational constants in cm-1:     0.085540     0.017249     0.015002

Vibrational entropy computed according to the QRRHO of S. Grimme
Chem.Eur.J. 2012 18 9955 using a reference frequency of 100.0 cm-1

-------
ENTROPY
-------

The entropy contributions are T*S = T*(S(el)+S(vib)+S(rot)+S(trans))
     S(el)   - electronic entropy
     S(vib)  - vibrational entropy
     S(rot)  - rotational entropy
     S(trans)- translational entropy
The entropies will be listed as multiplied by the temperature to get
units of energy

                             ****ORCA TERMINATED NORMALLY****
TOTAL RUN TIME: 0 days 0 hours 12 minutes 19 seconds 693 msec
