                         Program Version 6.0.0  -   RELEASE  -
|  1> !B3LYP opt aug-cc-pVTZ d3 TightSCF SlowConv RIJCOSX defgrid2
|  2>
|  3> %pal
|  4> nprocs 8
|  5> end
|  6>
|  7> %scf
|  8> MaxIter 1500
|  9> end
| 10>
| 11> %maxcore 3500
| 12>
| 13> !CPCM
| 14> %cpcm smd true
| 15> SMDsolvent "MeCN"
| 16> surfacetype gepol_ses
| 17> rsolv 2.19
| 18> end
| 19>
| 20> * xyz 1 2
| 21> C           1.36337197862367      0.00925782782262      0.00042331345329
| 22> C           0.74822645901465      1.29296895528656      0.00038316234352
| 23> C          -0.61529602246028      1.39626207073000      0.00023060917101
| 24> C          -1.42835414240665      0.22289484643639      0.00009324782531
| 25> C          -0.81975705014986     -1.06228254929373      0.00009847310954
| 26> C           0.54832834357610     -1.16073135173507      0.00023403456932
| 27> H           1.01965556748509     -2.14817388841103      0.00023835116044
| 28> H          -1.42717703035162     -1.96898347753981      0.00000365697629
| 29> O          -2.71426815111900      0.42982708435483     -0.00003024655139
| 30> C          -3.65743877124361     -0.63904368121668     -0.00016458675956
| 31> H          -4.64491010243250     -0.16049105257969     -0.00025717007063
| 32> H          -3.53752517507174     -1.25276547158578     -0.90821236062697
| 33> H          -3.53771725035146     -1.25281703649443      0.90787613291043
| 34> H          -1.11664261012245      2.36720004312394      0.00019734665612
| 35> H           1.36186872975284      2.19800021241604      0.00046058429736
| 36> S           3.05618464536732     -0.23274264105176      0.00049319565771
| 37> H           3.42654608188951      1.07420050973759     -0.00198104412179
| 38> *
| 39>
| 40>                          ****END OF INPUT****
 Total Charge           Charge          ....    1
 Multiplicity           Mult            ....    2
 Number of Electrons    NEL             ....   73
Dispersion correction           -0.031594087
FINAL SINGLE POINT ENERGY      -744.696942088827
Dispersion correction             ... done (  0.1 sec)
Dispersion correction           -0.031698842
FINAL SINGLE POINT ENERGY      -744.698238869300
Dispersion correction             ... done (  0.1 sec)
Dispersion correction           -0.031731746
FINAL SINGLE POINT ENERGY      -744.698358700475
Dispersion correction             ... done (  0.1 sec)
FINAL SINGLE POINT ENERGY      -744.698370121516
Dispersion correction             ... done (  0.1 sec)
Dispersion correction           -0.031735573
FINAL SINGLE POINT ENERGY      -744.698400893221
Dispersion correction             ... done (  0.1 sec)
Dispersion correction           -0.031733045
FINAL SINGLE POINT ENERGY      -744.698403517158
Dispersion correction             ... done (  0.1 sec)
                    ***********************HURRAY********************

CARTESIAN COORDINATES (ANGSTROEM)
---------------------------------
  C      1.340676    0.002292   -0.001533
  C      0.747904    1.289430   -0.003997
  C     -0.607836    1.404327   -0.002854
  C     -1.421163    0.238471   -0.000756
  C     -0.832200   -1.049816   -0.003173
  C      0.527688   -1.160121   -0.002908
  H      0.988669   -2.137695   -0.003287
  H     -1.445319   -1.935857   -0.003323
  O     -2.716718    0.453276    0.003344
  C     -3.645618   -0.658167    0.002743
  H     -4.629305   -0.203189    0.005409
  H     -3.505840   -1.255491   -0.895504
  H     -3.503071   -1.259798    0.897790
  H     -1.090051    2.370848   -0.002917
  H      1.371558    2.171047   -0.007129
  S      3.043583   -0.230209    0.005783
  H      3.402138    1.073233    0.012401

 Multiplicity           Mult            ....    2
 Number of Electrons    NEL             ....   73
 Basis Dimension        Dim             ....  602

ORBITAL ENERGIES
----------------
                 SPIN UP ORBITALS
  NO   OCC          E(Eh)            E(eV)
   0   1.0000     -88.960085     -2420.7270
   1   1.0000     -19.222557      -523.0724
   2   1.0000     -10.299619      -280.2669
   3   1.0000     -10.272732      -279.5353
   4   1.0000     -10.235617      -278.5253
   5   1.0000     -10.227220      -278.2968
   6   1.0000     -10.223097      -278.1846
   7   1.0000     -10.218319      -278.0546
   8   1.0000     -10.218234      -278.0523
   9   1.0000      -8.011342      -217.9997
  10   1.0000      -5.974315      -162.5694
  11   1.0000      -5.971801      -162.5010
  12   1.0000      -5.970238      -162.4584
  13   1.0000      -1.130983       -30.7756
  14   1.0000      -0.916691       -24.9444
  15   1.0000      -0.843964       -22.9654
  16   1.0000      -0.802777       -21.8447
  17   1.0000      -0.769764       -20.9463
  18   1.0000      -0.715860       -19.4795
  19   1.0000      -0.658721       -17.9247
  20   1.0000      -0.626154       -17.0385
  21   1.0000      -0.571948       -15.5635
  22   1.0000      -0.541531       -14.7358
  23   1.0000      -0.515452       -14.0262
  24   1.0000      -0.511143       -13.9089
  25   1.0000      -0.479858       -13.0576
  26   1.0000      -0.468684       -12.7535
  27   1.0000      -0.455154       -12.3854
  28   1.0000      -0.434260       -11.8168
  29   1.0000      -0.432240       -11.7619
  30   1.0000      -0.401886       -10.9359
  31   1.0000      -0.393621       -10.7110
  32   1.0000      -0.389466       -10.5979
  33   1.0000      -0.365079        -9.9343
  34   1.0000      -0.331727        -9.0267
  35   1.0000      -0.306445        -8.3388
  36   1.0000      -0.254194        -6.9170
  37   0.0000      -0.058637        -1.5956
  38   0.0000      -0.051773        -1.4088
  39   0.0000      -0.023285        -0.6336
  40   0.0000      -0.003770        -0.1026
  41   0.0000      -0.001229        -0.0335

                 SPIN DOWN ORBITALS
  NO   OCC          E(Eh)            E(eV)
   0   1.0000     -88.958284     -2420.6780
   1   1.0000     -19.217750      -522.9416
   2   1.0000     -10.296935      -280.1939
   3   1.0000     -10.269008      -279.4339
   4   1.0000     -10.235764      -278.5293
   5   1.0000     -10.226522      -278.2778
   6   1.0000     -10.222998      -278.1819
   7   1.0000     -10.217589      -278.0347
   8   1.0000     -10.217315      -278.0273
   9   1.0000      -8.009537      -217.9506
  10   1.0000      -5.973263      -162.5408
  11   1.0000      -5.969250      -162.4315
  12   1.0000      -5.965790      -162.3374
  13   1.0000      -1.122032       -30.5321
  14   1.0000      -0.909767       -24.7560
  15   1.0000      -0.836022       -22.7493
  16   1.0000      -0.800589       -21.7851
  17   1.0000      -0.765078       -20.8188
  18   1.0000      -0.708122       -19.2690
  19   1.0000      -0.654661       -17.8142
  20   1.0000      -0.621686       -16.9169
  21   1.0000      -0.569297       -15.4914
  22   1.0000      -0.539469       -14.6797
  23   1.0000      -0.512235       -13.9386
  24   1.0000      -0.495446       -13.4818
  25   1.0000      -0.477501       -12.9935
  26   1.0000      -0.467648       -12.7253
  27   1.0000      -0.452873       -12.3233
  28   1.0000      -0.430460       -11.7134
  29   1.0000      -0.419158       -11.4059
  30   1.0000      -0.400076       -10.8866
  31   1.0000      -0.384890       -10.4734
  32   1.0000      -0.375228       -10.2105
  33   1.0000      -0.362072        -9.8525
  34   1.0000      -0.304849        -8.2954
  35   1.0000      -0.300581        -8.1792
  36   0.0000      -0.185306        -5.0424
  37   0.0000      -0.042803        -1.1647
  38   0.0000      -0.033808        -0.9200
  39   0.0000      -0.021669        -0.5896
  40   0.0000      -0.002982        -0.0811

MULLIKEN ATOMIC CHARGES AND SPIN POPULATIONS
--------------------------------------------
   0 C :    0.724595    0.196054
   1 C :   -0.627343   -0.006713
   2 C :   -0.773732    0.053254
   3 C :    1.213692    0.175166
   4 C :   -0.233884    0.038018
   5 C :   -0.789682    0.051301
   6 H :    0.489502   -0.002860
   7 H :    0.457029    0.006500
   8 O :   -0.632975    0.158637
   9 C :   -0.643493   -0.010388
  10 H :    0.264416    0.000783
  11 H :    0.310939    0.006063
  12 H :    0.310578    0.006089
  13 H :    0.569109    0.001677
  14 H :    0.382518   -0.000261
  15 S :   -0.193981    0.349222
  16 H :    0.172711   -0.022543
Sum of atomic charges         :    1.0000000

LOEWDIN ATOMIC CHARGES AND SPIN POPULATIONS
-------------------------------------------
   0 C :   -0.529678    0.165870
   1 C :    0.180075    0.046274
   2 C :    0.262711    0.064246
   3 C :   -0.339499    0.131322
   4 C :    0.265053    0.062948
   5 C :    0.166013    0.061829
   6 H :   -0.165764    0.003891
   7 H :   -0.168669    0.006214
   8 O :    0.654021    0.143945
   9 C :    0.442002    0.013805
  10 H :   -0.164451   -0.000384
  11 H :   -0.155593    0.003382
  12 H :   -0.155409    0.003374
  13 H :   -0.150028    0.006929
  14 H :   -0.168853    0.000539
  15 S :    1.498701    0.249264
  16 H :   -0.470632    0.036552

  Mayer bond orders larger than 0.100000
B(  0-C ,  1-C ) :   0.8462 B(  0-C ,  5-C ) :   1.0127 B(  0-C , 15-S ) :   0.6144
B(  1-C ,  2-C ) :   1.5424 B(  1-C ,  3-C ) :  -0.2832 B(  1-C , 14-H ) :   0.7255
B(  2-C ,  3-C ) :   0.6061 B(  2-C ,  4-C ) :   0.1042 B(  2-C ,  8-O ) :   0.2935
B(  2-C , 13-H ) :   0.3693 B(  3-C ,  4-C ) :   0.9007 B(  3-C ,  5-C ) :  -0.2438
B(  3-C ,  8-O ) :   0.5399 B(  4-C ,  5-C ) :   1.1802 B(  4-C ,  7-H ) :   0.5025
B(  4-C ,  8-O ) :  -0.1249 B(  5-C ,  6-H ) :   0.6258 B(  5-C , 15-S ) :   0.1396
B(  8-O ,  9-C ) :   0.9225 B(  9-C , 10-H ) :   0.9711 B(  9-C , 11-H ) :   0.8875
B(  9-C , 12-H ) :   0.8877 B( 15-S , 16-H ) :   1.0225

Dispersion correction           -0.031732503
FINAL SINGLE POINT ENERGY      -744.698405189335

DIPOLE MOMENT
-------------

Method             : SCF
Type of density    : Electron Density
Multiplicity       :   2
Irrep              :   0
Energy             :  -744.6666726862724772 Eh
Relativity type    :
Basis              : AO
                                X                 Y                 Z
Electronic contribution:      7.708217319       0.888940776       0.001320520
Nuclear contribution   :     -7.960966501      -1.063143011      -0.001833937
                        -----------------------------------------
Total Dipole Moment    :     -0.252749182      -0.174202235      -0.000513418
                        -----------------------------------------
Magnitude (a.u.)       :      0.306967150
Magnitude (Debye)      :      0.780248489

Rotational constants in cm-1:             0.155026             0.023770             0.020692
Rotational constants in MHz :          4647.568624           712.608307           620.332051

                             ****ORCA TERMINATED NORMALLY****
TOTAL RUN TIME: 0 days 1 hours 10 minutes 4 seconds 71 msec
