                         Program Version 6.0.0  -   RELEASE  -
|  1> !B3LYP opt aug-cc-pVTZ d3 TightSCF SlowConv RIJCOSX defgrid2
|  2>
|  3> %pal
|  4> nprocs 8
|  5> end
|  6>
|  7> %scf
|  8> MaxIter 1500
|  9> end
| 10>
| 11> %maxcore 3500
| 12>
| 13> !CPCM
| 14> %cpcm smd true
| 15> SMDsolvent "MeCN"
| 16> surfacetype gepol_ses
| 17> rsolv 2.19
| 18> end
| 19>
| 20> * xyz 0 1
| 21> C          -0.72498712360752     -1.03199143591489     -0.00035587408950
| 22> C          -1.31725281953672      0.23700082940336     -0.00009216740947
| 23> C          -0.49927603036286      1.37741269983118     -0.00017815340748
| 24> C           0.87877130461947      1.25225114649976     -0.00046421372633
| 25> C           1.48912617012247     -0.01748708715836     -0.00062594889474
| 26> C           0.66252427774642     -1.14934366375667     -0.00064528665934
| 27> H           1.11889620163877     -2.14249327366435     -0.00083021648088
| 28> C           2.91104462440564     -0.14733894022628     -0.00063151415770
| 29> C           4.11990582812650     -0.25742637188868      0.00161358861277
| 30> H           5.19058139416864     -0.35415649223885      0.00097524906911
| 31> H           1.50779855780145      2.14601626186340     -0.00050473395896
| 32> H          -0.98017045333696      2.35860761783862      0.00000793066196
| 33> O          -2.64430351331883      0.45808400164866      0.00024605971359
| 34> C          -3.51534558275692     -0.63765175952228      0.00045178300619
| 35> H          -4.53490407246321     -0.22445155867607      0.00076695107216
| 36> H          -3.38161982455796     -1.26589006640153     -0.90098962915142
| 37> H          -3.38109122143507     -1.26596319208985      0.90176498266982
| 38> H          -1.33393961725331     -1.93771991554716     -0.00032660686979
| 39> *
| 40>
| 41>                          ****END OF INPUT****
 Total Charge           Charge          ....    0
 Multiplicity           Mult            ....    1
 Number of Electrons    NEL             ....   70
Dispersion correction           -0.031298966
FINAL SINGLE POINT ENERGY      -422.861744945496
Dispersion correction             ... done (  0.1 sec)
Dispersion correction           -0.031364465
FINAL SINGLE POINT ENERGY      -422.863144265681
Dispersion correction             ... done (  0.1 sec)
Dispersion correction           -0.031382805
FINAL SINGLE POINT ENERGY      -422.863259762432
Dispersion correction             ... done (  0.1 sec)
Dispersion correction           -0.031384415
FINAL SINGLE POINT ENERGY      -422.863297095909
Dispersion correction             ... done (  0.1 sec)
Dispersion correction           -0.031381644
FINAL SINGLE POINT ENERGY      -422.863303262902
Dispersion correction             ... done (  0.1 sec)
                    ***********************HURRAY********************

CARTESIAN COORDINATES (ANGSTROEM)
---------------------------------
  C     -0.723159   -1.023716    0.000829
  C     -1.306037    0.244775    0.000742
  C     -0.490468    1.381811    0.000229
  C      0.883192    1.252895   -0.000139
  C      1.484685   -0.016622    0.000035
  C      0.659123   -1.145128    0.000547
  H      1.103277   -2.130635    0.000181
  C      2.902720   -0.149596   -0.000810
  C      4.101775   -0.260695    0.000387
  H      5.162004   -0.358032   -0.001057
  H      1.504596    2.137244   -0.000756
  H     -0.952560    2.359248    0.000359
  O     -2.641520    0.469754    0.001128
  C     -3.518995   -0.658970   -0.000409
  H     -4.525986   -0.251561   -0.000981
  H     -3.372290   -1.268585   -0.893567
  H     -3.374064   -1.269991    0.892098
  H     -1.330535   -1.914737    0.001367

 Multiplicity           Mult            ....    1
 Number of Electrons    NEL             ....   70
 Basis Dimension        Dim             ....  644

ORBITAL ENERGIES
----------------

  NO   OCC          E(Eh)            E(eV)
   0   2.0000     -19.164121      -521.4823
   1   2.0000     -10.242192      -278.7042
   2   2.0000     -10.213638      -277.9272
   3   2.0000     -10.198205      -277.5073
   4   2.0000     -10.185038      -277.1490
   5   2.0000     -10.184336      -277.1299
   6   2.0000     -10.181859      -277.0625
   7   2.0000     -10.176495      -276.9165
   8   2.0000     -10.175386      -276.8863
   9   2.0000     -10.168606      -276.7018
  10   2.0000      -1.070752       -29.1366
  11   2.0000      -0.867789       -23.6137
  12   2.0000      -0.788297       -21.4507
  13   2.0000      -0.758467       -20.6389
  14   2.0000      -0.738329       -20.0910
  15   2.0000      -0.696998       -18.9663
  16   2.0000      -0.621591       -16.9143
  17   2.0000      -0.608216       -16.5504
  18   2.0000      -0.551644       -15.0110
  19   2.0000      -0.528018       -14.3681
  20   2.0000      -0.498278       -13.5588
  21   2.0000      -0.491120       -13.3641
  22   2.0000      -0.467300       -12.7159
  23   2.0000      -0.448404       -12.2017
  24   2.0000      -0.428788       -11.6679
  25   2.0000      -0.416240       -11.3265
  26   2.0000      -0.393957       -10.7201
  27   2.0000      -0.392881       -10.6908
  28   2.0000      -0.366564        -9.9747
  29   2.0000      -0.348284        -9.4773
  30   2.0000      -0.331673        -9.0253
  31   2.0000      -0.295049        -8.0287
  32   2.0000      -0.287268        -7.8170
  33   2.0000      -0.265778        -7.2322
  34   2.0000      -0.221380        -6.0241
  35   0.0000      -0.032209        -0.8765
  36   0.0000      -0.019341        -0.5263
  37   0.0000      -0.003557        -0.0968
  38   0.0000       0.006778         0.1845
  39   0.0000       0.012540         0.3412

MULLIKEN ATOMIC CHARGES
-----------------------
   0 C :   -0.187890
   1 C :    1.341381
   2 C :   -0.797797
   3 C :   -1.146573
   4 C :    1.614889
   5 C :   -1.328198
   6 H :   -0.350046
   7 C :    1.171374
   8 C :   -0.836680
   9 H :    0.306223
  10 H :   -0.307150
  11 H :    0.545781
  12 O :   -0.730918
  13 C :   -0.651143
  14 H :    0.244312
  15 H :    0.287811
  16 H :    0.286797
  17 H :    0.537827
Sum of atomic charges:    0.0000000

LOEWDIN ATOMIC CHARGES
----------------------
   0 C :    0.214599
   1 C :   -0.395327
   2 C :    0.208382
   3 C :    0.190341
   4 C :   -0.231428
   5 C :    0.196416
   6 H :   -0.166586
   7 C :   -0.027019
   8 C :    0.395023
   9 H :   -0.292529
  10 H :   -0.167994
  11 H :   -0.174729
  12 O :    0.600194
  13 C :    0.359078
  14 H :   -0.176975
  15 H :   -0.168555
  16 H :   -0.168487
  17 H :   -0.194404

  Mayer bond orders larger than 0.100000
B(  0-C ,  1-C ) :   1.0025 B(  0-C ,  2-C ) :   0.1949 B(  0-C ,  3-C ) :   0.1063
B(  0-C ,  4-C ) :   0.6961 B(  0-C ,  5-C ) :   0.9669 B(  0-C ,  6-H ) :  -0.2455
B(  0-C ,  7-C ) :  -0.2316 B(  0-C ,  8-C ) :  -0.1437 B(  0-C , 11-H ) :  -0.1161
B(  0-C , 17-H ) :   0.3374 B(  1-C ,  2-C ) :   0.6864 B(  1-C ,  3-C ) :  -0.5579
B(  1-C ,  5-C ) :  -0.4844 B(  1-C ,  7-C ) :   0.2626 B(  1-C , 10-H ) :  -0.1296
B(  1-C , 11-H ) :   0.1622 B(  1-C , 12-O ) :   0.2611 B(  1-C , 17-H ) :   0.1779
B(  2-C ,  3-C ) :   1.2710 B(  2-C ,  4-C ) :   0.5547 B(  2-C ,  7-C ) :  -0.1472
B(  2-C , 11-H ) :   0.3321 B(  2-C , 12-O ) :   0.3165 B(  3-C ,  5-C ) :  -0.5872
B(  3-C ,  6-H ) :   0.2542 B(  3-C ,  7-C ) :   0.5255 B(  3-C , 10-H ) :   2.2500
B(  4-C ,  5-C ) :   0.1214 B(  4-C ,  6-H ) :  -0.3583 B(  4-C ,  7-C ) :  -0.1688
B(  4-C ,  8-C ) :   0.9219 B(  4-C ,  9-H ) :   0.1041 B(  4-C , 10-H ) :  -0.2393
B(  4-C , 12-O ) :   0.1236 B(  5-C ,  6-H ) :   2.3953 B(  5-C ,  7-C ) :   0.4439
B(  5-C ,  8-C ) :  -0.2073 B(  5-C , 10-H ) :   0.2483 B(  5-C , 17-H ) :  -0.1122
B(  6-H ,  7-C ) :  -0.2304 B(  6-H ,  8-C ) :  -0.4400 B(  6-H , 10-H ) :   0.5508
B(  6-H , 17-H ) :  -0.1123 B(  7-C ,  8-C ) :   1.8409 B(  7-C ,  9-H ) :  -0.2258
B(  7-C , 10-H ) :  -0.2882 B(  8-C ,  9-H ) :   1.1822 B(  8-C , 10-H ) :  -0.4570
B(  8-C , 11-H ) :   0.1389 B(  8-C , 17-H ) :   0.2267 B( 12-O , 13-C ) :   0.9763
B( 13-C , 14-H ) :   0.9865 B( 13-C , 15-H ) :   0.9060 B( 13-C , 16-H ) :   0.9066

Dispersion correction           -0.031380612
FINAL SINGLE POINT ENERGY      -422.863303783508

DIPOLE MOMENT
-------------

Method             : SCF
Type of density    : Electron Density
Multiplicity       :   1
Irrep              :   0
Energy             :  -422.8319231713574027 Eh
Relativity type    :
Basis              : AO
                                X                 Y                 Z
Electronic contribution:      4.426208379       1.920462519       0.002822704
Nuclear contribution   :     -5.459224678      -2.539855245      -0.004050406
                        -----------------------------------------
Total Dipole Moment    :     -1.033016299      -0.619392726      -0.001227702
                        -----------------------------------------
Magnitude (a.u.)       :      1.204479776
Magnitude (Debye)      :      3.061544285

Rotational constants in cm-1:             0.161760             0.023655             0.020719
Rotational constants in MHz :          4849.451617           709.169601           621.137751

                             ****ORCA TERMINATED NORMALLY****
TOTAL RUN TIME: 0 days 0 hours 22 minutes 42 seconds 324 msec
