                         Program Version 6.0.0  -   RELEASE  -
|  1> !PBE0 aug-cc-pVTZ d3 TightSCF SlowConv RIJCOSX defgrid2
|  2>
|  3> %pal
|  4> nprocs 4
|  5> end
|  6>
|  7> %scf
|  8> MaxIter 1500
|  9> end
| 10>
| 11> %maxcore 3000
| 12>
| 13> !CPCM
| 14> %cpcm smd true
| 15> SMDsolvent "MeCN"
| 16> surfacetype gepol_ses
| 17> rsolv 2.19
| 18> end
| 19>
| 20> * xyz -1 2
| 21> C          -0.01331421056281      1.21015152275559     -0.00003912841012
| 22> C           1.37407426915828      1.22077182581697      0.00009471803504
| 23> C           2.08268728216500      0.01623593632828      0.00008078293558
| 24> C           1.39800867624770     -1.21018542596672     -0.00005492668248
| 25> C           0.01763373542032     -1.22524409629627     -0.00018246787257
| 26> C          -0.75988843497050     -0.01763719993150     -0.00018385015586
| 27> C          -2.18998893121825     -0.10468719257966     -0.00029823993913
| 28> O          -2.82191384294989     -1.19348424477804     -0.00032077578394
| 29> C          -2.98040993394950      1.20193760901241     -0.00023396308602
| 30> H          -2.77113925068928      1.83311429650402      0.88831166373856
| 31> H          -2.77095660989795      1.83331313895105     -0.88859326031545
| 32> H          -4.05230547218906      0.94280281896802     -0.00037251615162
| 33> H          -0.53955758793286     -2.16627118900373     -0.00028423650614
| 34> H           1.97817281356228     -2.14018774357936     -0.00004958149680
| 35> F           3.44427090335711      0.03016813897025      0.00021925839865
| 36> H           1.93269491180525      2.16366570442592      0.00021265957610
| 37> H          -0.54367651735585      2.16766590040277     -0.00001523628380
| 38> *
| 39>
| 40>                          ****END OF INPUT****

CARTESIAN COORDINATES (ANGSTROEM)
---------------------------------
  C     -0.013314    1.210152   -0.000039
  C      1.374074    1.220772    0.000095
  C      2.082687    0.016236    0.000081
  C      1.398009   -1.210185   -0.000055
  C      0.017634   -1.225244   -0.000182
  C     -0.759888   -0.017637   -0.000184
  C     -2.189989   -0.104687   -0.000298
  O     -2.821914   -1.193484   -0.000321
  C     -2.980410    1.201938   -0.000234
  H     -2.771139    1.833114    0.888312
  H     -2.770957    1.833313   -0.888593
  H     -4.052305    0.942803   -0.000373
  H     -0.539558   -2.166271   -0.000284
  H      1.978173   -2.140188   -0.000050
  F      3.444271    0.030168    0.000219
  H      1.932695    2.163666    0.000213
  H     -0.543677    2.167666   -0.000015

 Total Charge           Charge          ....   -1
 Multiplicity           Mult            ....    2
 Number of Electrons    NEL             ....   73
 Basis Dimension        Dim             ....  621

ORBITAL ENERGIES
----------------
                 SPIN UP ORBITALS
  NO   OCC          E(Eh)            E(eV)
   0   1.0000     -24.771848      -674.0762
   1   1.0000     -19.128261      -520.5065
   2   1.0000     -10.279039      -279.7069
   3   1.0000     -10.239583      -278.6332
   4   1.0000     -10.214945      -277.9628
   5   1.0000     -10.214902      -277.9616
   6   1.0000     -10.211669      -277.8736
   7   1.0000     -10.206414      -277.7306
   8   1.0000     -10.198052      -277.5031
   9   1.0000     -10.194463      -277.4055
  10   1.0000      -1.242013       -33.7969
  11   1.0000      -0.993090       -27.0234
  12   1.0000      -0.859700       -23.3936
  13   1.0000      -0.763907       -20.7870
  14   1.0000      -0.754626       -20.5344
  15   1.0000      -0.711503       -19.3610
  16   1.0000      -0.631447       -17.1825
  17   1.0000      -0.610878       -16.6228
  18   1.0000      -0.542701       -14.7677
  19   1.0000      -0.540333       -14.7032
  20   1.0000      -0.484697       -13.1893
  21   1.0000      -0.476283       -12.9603
  22   1.0000      -0.456454       -12.4207
  23   1.0000      -0.434850       -11.8329
  24   1.0000      -0.419106       -11.4045
  25   1.0000      -0.416750       -11.3403
  26   1.0000      -0.409010       -11.1297
  27   1.0000      -0.391449       -10.6519
  28   1.0000      -0.374140       -10.1809
  29   1.0000      -0.363489        -9.8910
  30   1.0000      -0.353450        -9.6179
  31   1.0000      -0.329869        -8.9762
  32   1.0000      -0.320825        -8.7301
  33   1.0000      -0.262634        -7.1466
  34   1.0000      -0.245125        -6.6702
  35   1.0000      -0.220782        -6.0078
  36   1.0000      -0.101355        -2.7580
  37   0.0000       0.002389         0.0650
  38   0.0000       0.002965         0.0807
  39   0.0000       0.015998         0.4353
  40   0.0000       0.019014         0.5174
  41   0.0000       0.029894         0.8135

                 SPIN DOWN ORBITALS
  NO   OCC          E(Eh)            E(eV)
   0   1.0000     -24.770917      -674.0509
   1   1.0000     -19.122358      -520.3458
   2   1.0000     -10.273911      -279.5673
   3   1.0000     -10.235251      -278.5153
   4   1.0000     -10.216559      -278.0067
   5   1.0000     -10.216489      -278.0048
   6   1.0000     -10.208932      -277.7992
   7   1.0000     -10.203632      -277.6549
   8   1.0000     -10.197171      -277.4791
   9   1.0000     -10.194867      -277.4164
  10   1.0000      -1.239631       -33.7321
  11   1.0000      -0.981530       -26.7088
  12   1.0000      -0.855671       -23.2840
  13   1.0000      -0.756998       -20.5990
  14   1.0000      -0.751041       -20.4369
  15   1.0000      -0.708405       -19.2767
  16   1.0000      -0.623207       -16.9583
  17   1.0000      -0.608423       -16.5560
  18   1.0000      -0.538578       -14.6555
  19   1.0000      -0.536563       -14.6006
  20   1.0000      -0.483293       -13.1511
  21   1.0000      -0.466431       -12.6922
  22   1.0000      -0.452165       -12.3040
  23   1.0000      -0.433209       -11.7882
  24   1.0000      -0.416230       -11.3262
  25   1.0000      -0.406681       -11.0663
  26   1.0000      -0.406640       -11.0653
  27   1.0000      -0.389786       -10.6066
  28   1.0000      -0.370424       -10.0798
  29   1.0000      -0.353770        -9.6266
  30   1.0000      -0.351217        -9.5571
  31   1.0000      -0.319425        -8.6920
  32   1.0000      -0.303764        -8.2658
  33   1.0000      -0.252900        -6.8818
  34   1.0000      -0.221341        -6.0230
  35   1.0000      -0.215714        -5.8699
  36   0.0000      -0.013757        -0.3744
  37   0.0000       0.005165         0.1405
  38   0.0000       0.007640         0.2079
  39   0.0000       0.017050         0.4640
  40   0.0000       0.021172         0.5761

MULLIKEN ATOMIC CHARGES AND SPIN POPULATIONS
--------------------------------------------
   0 C :   -0.627064    0.221139
   1 C :   -0.896615   -0.096272
   2 C :    0.507199    0.271796
   3 C :   -0.786082   -0.089452
   4 C :   -0.946236    0.213924
   5 C :    1.335560    0.064816
   6 C :    0.468683    0.214036
   7 O :   -1.058327    0.225431
   8 C :   -0.700869   -0.017146
   9 H :    0.263955    0.010370
  10 H :    0.264919    0.010342
  11 H :    0.162448    0.000483
  12 H :    0.284183   -0.023506
  13 H :    0.503809    0.000255
  14 F :   -0.513297    0.013095
  15 H :    0.496362    0.003037
  16 H :    0.241373   -0.022347
Sum of atomic charges         :   -1.0000000

LOEWDIN ATOMIC CHARGES AND SPIN POPULATIONS
-------------------------------------------
   0 C :    0.142885    0.095576
   1 C :    0.127567    0.022567
   2 C :   -0.580322    0.133118
   3 C :    0.126877    0.022151
   4 C :    0.127526    0.093646
   5 C :   -0.215189    0.117968
   6 C :   -0.684842    0.187134
   7 O :    0.333033    0.203118
   8 C :    0.488684    0.036393
   9 H :   -0.176720    0.009292
  10 H :   -0.176765    0.009288
  11 H :   -0.202361   -0.000767
  12 H :   -0.213219    0.021939
  13 H :   -0.185891   -0.006378
  14 F :    0.474712    0.039275
  15 H :   -0.184639   -0.006168
  16 H :   -0.201337    0.021847

  Mayer bond orders larger than 0.100000
B(  0-C ,  1-C ) :   1.1919 B(  0-C ,  2-C ) :  -0.1851 B(  0-C ,  3-C ) :  -0.1079
B(  0-C ,  4-C ) :  -0.3002 B(  0-C ,  5-C ) :   0.3741 B(  0-C ,  6-C ) :   0.1820
B(  0-C , 16-H ) :   1.0654 B(  1-C ,  2-C ) :   1.3774 B(  1-C ,  3-C ) :   0.2682
B(  1-C ,  5-C ) :   0.1259 B(  1-C , 14-F ) :   0.1942 B(  1-C , 15-H ) :   0.4475
B(  2-C ,  3-C ) :   1.3906 B(  2-C ,  4-C ) :  -0.2397 B(  2-C , 14-F ) :   0.2303
B(  3-C ,  4-C ) :   1.4807 B(  3-C , 13-H ) :   0.4475 B(  3-C , 14-F ) :   0.1842
B(  3-C , 16-H ) :  -0.1103 B(  4-C ,  5-C ) :   0.2885 B(  4-C ,  6-C ) :   0.2840
B(  4-C , 12-H ) :   0.8623 B(  4-C , 16-H ) :   0.1178 B(  5-C ,  6-C ) :   0.5327
B(  5-C ,  7-O ) :   0.1427 B(  6-C ,  7-O ) :   0.6577 B(  6-C ,  8-C ) :   0.9694
B(  7-O , 12-H ) :   0.1445 B(  8-C ,  9-H ) :   0.9246 B(  8-C , 10-H ) :   0.9239
B(  8-C , 11-H ) :   0.9800 B( 12-H , 16-H ) :   0.1219 B( 13-H , 14-F ) :   0.1177
B( 14-F , 15-H ) :   0.1050

Dispersion correction           -0.015265120
FINAL SINGLE POINT ENERGY      -483.871323549069

DIPOLE MOMENT
-------------

Method             : SCF
Type of density    : Electron Density
Multiplicity       :   2
Irrep              :   0
Energy             :  -483.8560584287849338 Eh
Relativity type    :
Basis              : AO
                                X                 Y                 Z
Electronic contribution:     11.363215576      -2.868082480       0.001185665
Nuclear contribution   :     -9.605928906       4.332386022      -0.000475554
                        -----------------------------------------
Total Dipole Moment    :      1.757286670       1.464303543       0.000710111
                        -----------------------------------------
Magnitude (a.u.)       :      2.287409410
Magnitude (Debye)      :      5.814132664

Rotational constants in cm-1:             0.120873             0.025381             0.021060
Rotational constants in MHz :          3623.689684           760.893162           631.349310

                             ****ORCA TERMINATED NORMALLY****
TOTAL RUN TIME: 0 days 0 hours 6 minutes 30 seconds 601 msec
