                         Program Version 6.0.0  -   RELEASE  -
|  1> !PBE0 opt def2-SV(p) d3 TightSCF SlowConv RIJCOSX defgrid2
|  2>
|  3> %pal
|  4> nprocs 8
|  5> end
|  6>
|  7> %scf
|  8> MaxIter 1500
|  9> end
| 10>
| 11> %maxcore 3500
| 12>
| 13> !CPCM
| 14> %cpcm smd true
| 15> SMDsolvent "MeCN"
| 16> surfacetype gepol_ses
| 17> rsolv 2.19
| 18> end
| 19>
| 20> * xyz 1 2
| 21>   C           0.87934177719241     -1.21067540660195     -0.00127873260104
| 22>   C           1.22966791062708      0.17589003644793     -0.00125005722435
| 23>   C           0.19352686925839      1.14394656984736     -0.00149111275385
| 24>   C          -1.13231520397495      0.78669329491317     -0.00080306214070
| 25>   C          -1.46510504021522     -0.60862399997749     -0.00045500870784
| 26>   C          -0.43665639825098     -1.57759018274227     -0.00099349821475
| 27>   H          -0.70917370093293     -2.62489490442543     -0.00073797390594
| 28>   C          -2.88479791521646     -1.03557146730207      0.00080899159998
| 29>   H          -2.97980028341228     -2.11915960591924     -0.00182011474649
| 30>   H          -3.40673479059727     -0.62649482246360     -0.87115912381210
| 31>   H          -3.40296145288668     -0.63162433998259      0.87752191630673
| 32>   C          -2.21247122678077      1.81955994873864     -0.00029432696288
| 33>   H          -2.85324170622999      1.71349474221483      0.87950825273153
| 34>   H          -2.85540680542070      1.71180541522823     -0.87828832533143
| 35>   H          -1.78822029274995      2.82234871748346     -0.00184938620887
| 36>   H           0.47021734271422      2.19118748703079     -0.00206712775511
| 37>   C           2.57817781960178      0.62528629337631      0.00008691264437
| 38>   C           3.67640956189093     -0.18720388000109      0.00158255559163
| 39>   H           3.60637790042259     -1.26715194135535      0.00094270566920
| 40>   H           4.66908776941111      0.24379950163999      0.00343851393053
| 41>   H           2.73036007583250      1.69884477458196     -0.00006108912333
| 42>   H           1.65095458971720     -1.96729503073156     -0.00180740898531
| 43>
| 44> *
| 45>
| 46>                          ****END OF INPUT****
 Total Charge           Charge          ....    1
 Multiplicity           Mult            ....    2
 Number of Electrons    NEL             ....   71
Dispersion correction           -0.020355002
FINAL SINGLE POINT ENERGY      -387.321145208880
Dispersion correction             ... done (  0.1 sec)
Dispersion correction           -0.020295977
FINAL SINGLE POINT ENERGY      -387.322321983927
Dispersion correction             ... done (  0.1 sec)
Dispersion correction           -0.020289762
FINAL SINGLE POINT ENERGY      -387.322338024799
Dispersion correction             ... done (  0.1 sec)
Dispersion correction           -0.020286502
FINAL SINGLE POINT ENERGY      -387.322344499271
Dispersion correction             ... done (  0.1 sec)
                    ***********************HURRAY********************

CARTESIAN COORDINATES (ANGSTROEM)
---------------------------------
  C      0.880169   -1.214685   -0.000960
  C      1.234395    0.173281   -0.001276
  C      0.193848    1.143379   -0.001759
  C     -1.136819    0.787670   -0.001043
  C     -1.471877   -0.610239   -0.000538
  C     -0.440269   -1.581055   -0.000722
  H     -0.713266   -2.639063    0.000003
  C     -2.890279   -1.034996    0.000902
  H     -2.991590   -2.130069   -0.003937
  H     -3.420781   -0.621606   -0.877848
  H     -3.414967   -0.630813    0.887602
  C     -2.214334    1.820256   -0.000641
  H     -2.864543    1.716922    0.886661
  H     -2.864495    1.717434   -0.888037
  H     -1.788610    2.835266   -0.000414
  H      0.472251    2.200661   -0.002978
  C      2.583907    0.623287    0.000035
  C      3.691745   -0.185260    0.001594
  H      3.629841   -1.278404    0.000826
  H      4.692114    0.260046    0.003472
  H      2.735789    1.708045   -0.000243
  H      1.655005   -1.983486   -0.001168

 Multiplicity           Mult            ....    2
 Number of Electrons    NEL             ....   71
 Basis Dimension        Dim             ....  164

ORBITAL ENERGIES
----------------
                 SPIN UP ORBITALS
  NO   OCC          E(Eh)            E(eV)
   0   1.0000     -10.309879      -280.5461
   1   1.0000     -10.305983      -280.4401
   2   1.0000     -10.291847      -280.0554
   3   1.0000     -10.287372      -279.9336
   4   1.0000     -10.286201      -279.9017
   5   1.0000     -10.283919      -279.8397
   6   1.0000     -10.272969      -279.5417
   7   1.0000     -10.268492      -279.4199
   8   1.0000     -10.240748      -278.6649
   9   1.0000     -10.235516      -278.5225
  10   1.0000      -0.931768       -25.3547
  11   1.0000      -0.869677       -23.6651
  12   1.0000      -0.821281       -22.3482
  13   1.0000      -0.806661       -21.9504
  14   1.0000      -0.746069       -20.3016
  15   1.0000      -0.716409       -19.4945
  16   1.0000      -0.658231       -17.9114
  17   1.0000      -0.648243       -17.6396
  18   1.0000      -0.591650       -16.0996
  19   1.0000      -0.553460       -15.0604
  20   1.0000      -0.536067       -14.5871
  21   1.0000      -0.498725       -13.5710
  22   1.0000      -0.477179       -12.9847
  23   1.0000      -0.475835       -12.9481
  24   1.0000      -0.466017       -12.6810
  25   1.0000      -0.458273       -12.4702
  26   1.0000      -0.427929       -11.6445
  27   1.0000      -0.423166       -11.5149
  28   1.0000      -0.421905       -11.4806
  29   1.0000      -0.416826       -11.3424
  30   1.0000      -0.407777       -11.0962
  31   1.0000      -0.386533       -10.5181
  32   1.0000      -0.377235       -10.2651
  33   1.0000      -0.353983        -9.6324
  34   1.0000      -0.301124        -8.1940
  35   1.0000      -0.283563        -7.7161
  36   0.0000      -0.095759        -2.6057
  37   0.0000      -0.033535        -0.9125
  38   0.0000       0.009178         0.2497
  39   0.0000       0.072525         1.9735
  40   0.0000       0.078845         2.1455

                 SPIN DOWN ORBITALS
  NO   OCC          E(Eh)            E(eV)
   0   1.0000     -10.304757      -280.4067
   1   1.0000     -10.302546      -280.3465
   2   1.0000     -10.288551      -279.9657
   3   1.0000     -10.285992      -279.8961
   4   1.0000     -10.284385      -279.8523
   5   1.0000     -10.281842      -279.7831
   6   1.0000     -10.272880      -279.5393
   7   1.0000     -10.269430      -279.4454
   8   1.0000     -10.240962      -278.6707
   9   1.0000     -10.235528      -278.5229
  10   1.0000      -0.924838       -25.1661
  11   1.0000      -0.861327       -23.4379
  12   1.0000      -0.819911       -22.3109
  13   1.0000      -0.795922       -21.6581
  14   1.0000      -0.741561       -20.1789
  15   1.0000      -0.710635       -19.3374
  16   1.0000      -0.653783       -17.7904
  17   1.0000      -0.643933       -17.5223
  18   1.0000      -0.587217       -15.9790
  19   1.0000      -0.551327       -15.0024
  20   1.0000      -0.532973       -14.5029
  21   1.0000      -0.495598       -13.4859
  22   1.0000      -0.473256       -12.8779
  23   1.0000      -0.466089       -12.6829
  24   1.0000      -0.463233       -12.6052
  25   1.0000      -0.457295       -12.4436
  26   1.0000      -0.423079       -11.5126
  27   1.0000      -0.420951       -11.4547
  28   1.0000      -0.416379       -11.3302
  29   1.0000      -0.406125       -11.0512
  30   1.0000      -0.405436       -11.0325
  31   1.0000      -0.385604       -10.4928
  32   1.0000      -0.375143       -10.2082
  33   1.0000      -0.326480        -8.8840
  34   1.0000      -0.296311        -8.0630
  35   0.0000      -0.193356        -5.2615
  36   0.0000      -0.061962        -1.6861
  37   0.0000      -0.023166        -0.6304
  38   0.0000       0.030818         0.8386
  39   0.0000       0.073334         1.9955

MULLIKEN ATOMIC CHARGES AND SPIN POPULATIONS
--------------------------------------------
   0 C :   -0.073920    0.134529
   1 C :    0.115372    0.227688
   2 C :   -0.171015    0.000809
   3 C :   -0.008605   -0.002897
   4 C :   -0.001413    0.353252
   5 C :   -0.123537   -0.088859
   6 H :    0.147640    0.002072
   7 C :   -0.301393   -0.028309
   8 H :    0.173461    0.000026
   9 H :    0.190590    0.022264
  10 H :    0.191055    0.022585
  11 C :   -0.290434   -0.001258
  12 H :    0.173717    0.002291
  13 H :    0.173888    0.002277
  14 H :    0.164052   -0.000476
  15 H :    0.146380   -0.001306
  16 C :   -0.115852   -0.087032
  17 C :   -0.144471    0.497443
  18 H :    0.212464   -0.023955
  19 H :    0.208111   -0.026676
  20 H :    0.175258    0.002799
  21 H :    0.158653   -0.007268
Sum of atomic charges         :    1.0000000

LOEWDIN ATOMIC CHARGES AND SPIN POPULATIONS
-------------------------------------------
   0 C :   -0.046485    0.122919
   1 C :    0.021484    0.185710
   2 C :   -0.073085    0.017543
   3 C :   -0.010892    0.023713
   4 C :    0.076922    0.271650
   5 C :   -0.101993   -0.034716
   6 H :    0.163438    0.000843
   7 C :   -0.326775   -0.001269
   8 H :    0.150833    0.000092
   9 H :    0.168876    0.019068
  10 H :    0.169277    0.019354
  11 C :   -0.328496    0.000451
  12 H :    0.154853    0.001982
  13 H :    0.154891    0.001972
  14 H :    0.147026   -0.000337
  15 H :    0.163567   -0.000838
  16 C :   -0.072957   -0.036734
  17 C :   -0.079085    0.435906
  18 H :    0.163187   -0.012027
  19 H :    0.170789   -0.012691
  20 H :    0.168860    0.001276
  21 H :    0.165764   -0.003865

  Mayer bond orders larger than 0.100000
B(  0-C ,  1-C ) :   1.1610 B(  0-C ,  5-C ) :   1.5204 B(  0-C , 21-H ) :   0.9451
B(  1-C ,  2-C ) :   1.2012 B(  1-C , 16-C ) :   1.2854 B(  2-C ,  3-C ) :   1.5183
B(  2-C , 15-H ) :   0.9546 B(  3-C ,  4-C ) :   1.2193 B(  3-C , 11-C ) :   1.1260
B(  4-C ,  5-C ) :   1.2851 B(  4-C ,  7-C ) :   1.1586 B(  5-C ,  6-H ) :   0.9543
B(  7-C ,  8-H ) :   0.9291 B(  7-C ,  9-H ) :   0.8973 B(  7-C , 10-H ) :   0.8970
B( 11-C , 12-H ) :   0.9136 B( 11-C , 13-H ) :   0.9136 B( 11-C , 14-H ) :   0.9318
B( 16-C , 17-C ) :   1.6386 B( 16-C , 20-H ) :   0.9257 B( 17-C , 18-H ) :   0.8945
B( 17-C , 19-H ) :   0.9104

Dispersion correction           -0.020286570
FINAL SINGLE POINT ENERGY      -387.322344552897

DIPOLE MOMENT
-------------

Method             : SCF
Type of density    : Electron Density
Multiplicity       :   2
Irrep              :   0
Energy             :  -387.3020579827304459 Eh
Relativity type    :
Basis              : AO
                                X                 Y                 Z
Electronic contribution:      5.564967398      -1.241127974      -0.006048116
Nuclear contribution   :     -4.593968809       1.064543662       0.007864835
                        -----------------------------------------
Total Dipole Moment    :      0.970998590      -0.176584313       0.001816719
                        -----------------------------------------
Magnitude (a.u.)       :      0.986926330
Magnitude (Debye)      :      2.508567372

Rotational constants in cm-1:             0.095495             0.029211             0.022558
Rotational constants in MHz :          2862.863037           875.720695           676.261454

                             ****ORCA TERMINATED NORMALLY****
TOTAL RUN TIME: 0 days 0 hours 5 minutes 48 seconds 217 msec
