                         Program Version 6.0.0  -   RELEASE  -
|  1> !r2SCANh aug-cc-pVTZ d3 TightSCF SlowConv RIJCOSX defgrid2
|  2>
|  3> %pal
|  4> nprocs 4
|  5> end
|  6>
|  7> %scf
|  8> MaxIter 1500
|  9> end
| 10>
| 11> %maxcore 3000
| 12>
| 13> !CPCM
| 14> %cpcm smd true
| 15> SMDsolvent "MeCN"
| 16> surfacetype gepol_ses
| 17> rsolv 2.19
| 18> end
| 19>
| 20> * xyz 1 2
| 21> C          -0.67908643386725      1.23607676469241      0.05037688455432
| 22> C           0.69063537473082      1.22239505984825      0.03433122006490
| 23> C           1.41935940969442      0.00089697821530      0.02361032838992
| 24> C           2.90264582314279      0.00023187234458     -0.03154544602423
| 25> H           3.33275857806013      0.90982454248379      0.41704425889491
| 26> H           3.23040482362577     -0.02388819542517     -1.09174805024851
| 27> H           3.33188322628672     -0.89033444842890      0.45524306190015
| 28> C           0.69116135048355     -1.22128045675289      0.03322526814773
| 29> C          -0.67837863172589     -1.23584655805266      0.04927182441236
| 30> C          -1.40125371058004     -0.00006366269893      0.05776120704274
| 31> N          -2.73211521344069     -0.00040267889955      0.07439012831924
| 32> H          -3.26281790606968     -0.86988933466929      0.08068697932374
| 33> H          -3.26324263121073      0.86881860998728      0.08143282938743
| 34> H          -1.22754000431610     -2.18185307095538      0.05799598423108
| 35> H           1.24009901564024     -2.16715763912366      0.03003003714593
| 36> H           1.23900198016691      2.16857067789729      0.03198987167601
| 37> H          -1.22875875062097      2.18177673953752      0.05992551278228
| 38> *
| 39>
| 40>                          ****END OF INPUT****

CARTESIAN COORDINATES (ANGSTROEM)
---------------------------------
  C     -0.679086    1.236077    0.050377
  C      0.690635    1.222395    0.034331
  C      1.419359    0.000897    0.023610
  C      2.902646    0.000232   -0.031545
  H      3.332759    0.909825    0.417044
  H      3.230405   -0.023888   -1.091748
  H      3.331883   -0.890334    0.455243
  C      0.691161   -1.221280    0.033225
  C     -0.678379   -1.235847    0.049272
  C     -1.401254   -0.000064    0.057761
  N     -2.732115   -0.000403    0.074390
  H     -3.262818   -0.869889    0.080687
  H     -3.263243    0.868819    0.081433
  H     -1.227540   -2.181853    0.057996
  H      1.240099   -2.167158    0.030030
  H      1.239002    2.168571    0.031990
  H     -1.228759    2.181777    0.059926

 Total Charge           Charge          ....    1
 Multiplicity           Mult            ....    2
 Number of Electrons    NEL             ....   57
 Basis Dimension        Dim             ....  575

ORBITAL ENERGIES
----------------
                 SPIN UP ORBITALS
  NO   OCC          E(Eh)            E(eV)
   0   1.0000     -14.393594      -391.6696
   1   1.0000     -10.262407      -279.2543
   2   1.0000     -10.220852      -278.1235
   3   1.0000     -10.202577      -277.6262
   4   1.0000     -10.202490      -277.6239
   5   1.0000     -10.191074      -277.3132
   6   1.0000     -10.191025      -277.3119
   7   1.0000     -10.163216      -276.5552
   8   1.0000      -0.996260       -27.1096
   9   1.0000      -0.886644       -24.1268
  10   1.0000      -0.794807       -21.6278
  11   1.0000      -0.786263       -21.3953
  12   1.0000      -0.700459       -19.0604
  13   1.0000      -0.647514       -17.6198
  14   1.0000      -0.621270       -16.9056
  15   1.0000      -0.560182       -15.2433
  16   1.0000      -0.555284       -15.1101
  17   1.0000      -0.487152       -13.2561
  18   1.0000      -0.468127       -12.7384
  19   1.0000      -0.448572       -12.2063
  20   1.0000      -0.445776       -12.1302
  21   1.0000      -0.442365       -12.0374
  22   1.0000      -0.422015       -11.4836
  23   1.0000      -0.386211       -10.5093
  24   1.0000      -0.377327       -10.2676
  25   1.0000      -0.351935        -9.5766
  26   1.0000      -0.348150        -9.4736
  27   1.0000      -0.293249        -7.9797
  28   1.0000      -0.248477        -6.7614
  29   0.0000      -0.055485        -1.5098
  30   0.0000      -0.053250        -1.4490
  31   0.0000       0.007403         0.2015
  32   0.0000       0.018186         0.4949
  33   0.0000       0.024749         0.6735

                 SPIN DOWN ORBITALS
  NO   OCC          E(Eh)            E(eV)
   0   1.0000     -14.384069      -391.4104
   1   1.0000     -10.261757      -279.2366
   2   1.0000     -10.213706      -277.9291
   3   1.0000     -10.198805      -277.5236
   4   1.0000     -10.198750      -277.5221
   5   1.0000     -10.193086      -277.3680
   6   1.0000     -10.193047      -277.3669
   7   1.0000     -10.163469      -276.5621
   8   1.0000      -0.981650       -26.7121
   9   1.0000      -0.876955       -23.8632
  10   1.0000      -0.782754       -21.2998
  11   1.0000      -0.781352       -21.2617
  12   1.0000      -0.697405       -18.9774
  13   1.0000      -0.644178       -17.5290
  14   1.0000      -0.613401       -16.6915
  15   1.0000      -0.558053       -15.1854
  16   1.0000      -0.550480       -14.9793
  17   1.0000      -0.482070       -13.1178
  18   1.0000      -0.464992       -12.6531
  19   1.0000      -0.443646       -12.0722
  20   1.0000      -0.441921       -12.0253
  21   1.0000      -0.424669       -11.5558
  22   1.0000      -0.400941       -10.9102
  23   1.0000      -0.385306       -10.4847
  24   1.0000      -0.375313       -10.2128
  25   1.0000      -0.350070        -9.5259
  26   1.0000      -0.321351        -8.7444
  27   1.0000      -0.284164        -7.7325
  28   0.0000      -0.176181        -4.7941
  29   0.0000      -0.041715        -1.1351
  30   0.0000      -0.022619        -0.6155
  31   0.0000       0.008758         0.2383
  32   0.0000       0.019579         0.5328

MULLIKEN ATOMIC CHARGES AND SPIN POPULATIONS
--------------------------------------------
   0 C :   -0.677500    0.231945
   1 C :   -0.731953   -0.175836
   2 C :    1.473161    0.497130
   3 C :   -0.700895   -0.075116
   4 H :    0.220678    0.004247
   5 H :    0.270893    0.045859
   6 H :    0.222248    0.005887
   7 C :   -0.745208   -0.173917
   8 C :   -0.683230    0.230006
   9 C :    1.204038    0.045499
  10 N :   -0.449563    0.387031
  11 H :    0.064763   -0.011441
  12 H :    0.064123   -0.011394
  13 H :    0.577335    0.005248
  14 H :    0.157830   -0.004900
  15 H :    0.151467   -0.005497
  16 H :    0.581813    0.005251
Sum of atomic charges         :    1.0000000

LOEWDIN ATOMIC CHARGES AND SPIN POPULATIONS
-------------------------------------------
   0 C :    0.282704    0.108904
   1 C :    0.259893    0.027709
   2 C :   -0.082372    0.180695
   3 C :    0.606975    0.062508
   4 H :   -0.151995    0.005082
   5 H :   -0.131423    0.019547
   6 H :   -0.151092    0.005728
   7 C :    0.259686    0.027488
   8 C :    0.282581    0.108039
   9 C :   -0.166711    0.128902
  10 N :    0.958411    0.243789
  11 H :   -0.198657    0.030976
  12 H :   -0.198667    0.030961
  13 H :   -0.139133    0.019602
  14 H :   -0.145347   -0.009847
  15 H :   -0.145778   -0.009864
  16 H :   -0.139073    0.019783

  Mayer bond orders larger than 0.100000
B(  0-C ,  1-C ) :   1.4496 B(  0-C ,  2-C ) :   0.2497 B(  0-C ,  7-C ) :  -0.1695
B(  0-C ,  8-C ) :   0.2144 B(  0-C ,  9-C ) :   0.6177 B(  0-C , 10-N ) :  -0.1540
B(  0-C , 16-H ) :   0.2600 B(  1-C ,  2-C ) :   0.3059 B(  1-C ,  7-C ) :  -0.1330
B(  1-C ,  8-C ) :  -0.1597 B(  1-C ,  9-C ) :  -0.2410 B(  1-C , 15-H ) :   1.1259
B(  2-C ,  3-C ) :   0.3224 B(  2-C ,  7-C ) :   0.3065 B(  2-C ,  8-C ) :   0.2469
B(  2-C ,  9-C ) :   0.1745 B(  3-C ,  4-H ) :   0.9841 B(  3-C ,  5-H ) :   0.9191
B(  3-C ,  6-H ) :   0.9827 B(  3-C ,  7-C ) :   0.1075 B(  7-C ,  8-C ) :   1.4551
B(  7-C ,  9-C ) :  -0.2399 B(  7-C , 14-H ) :   1.1128 B(  8-C ,  9-C ) :   0.6195
B(  8-C , 10-N ) :  -0.1564 B(  8-C , 13-H ) :   0.2686 B(  9-C , 10-N ) :   0.8220
B(  9-C , 13-H ) :   0.1345 B(  9-C , 16-H ) :   0.1363 B( 10-N , 11-H ) :   1.1302
B( 10-N , 12-H ) :   1.1315

Dispersion correction           -0.005028767
FINAL SINGLE POINT ENERGY      -326.667148552333

DIPOLE MOMENT
-------------

Method             : SCF
Type of density    : Electron Density
Multiplicity       :   2
Irrep              :   0
Energy             :  -326.6621197853535818 Eh
Relativity type    :
Basis              : AO
                                X                 Y                 Z
Electronic contribution:     -5.160143770       0.002359942       0.157200101
Nuclear contribution   :      3.125767574      -0.005388112      -0.182011929
                        -----------------------------------------
Total Dipole Moment    :     -2.034376196      -0.003028171      -0.024811828
                        -----------------------------------------
Magnitude (a.u.)       :      2.034529750
Magnitude (Debye)      :      5.171363649

Rotational constants in cm-1:             0.174913             0.049835             0.039071
Rotational constants in MHz :          5243.747665          1494.011541          1171.305405

                             ****ORCA TERMINATED NORMALLY****
TOTAL RUN TIME: 0 days 0 hours 7 minutes 28 seconds 879 msec
