                         Program Version 6.0.0  -   RELEASE  -
|  1> !B3LYP freq aug-cc-pVTZ d3 TightSCF SlowConv RIJCOSX defgrid2
|  2>
|  3> %pal
|  4> nprocs 12
|  5>
|  6> end
|  7>
|  8> %scf
|  9> MaxIter 1500
| 10> end
| 11>
| 12> %maxcore 5000
| 13>
| 14> !CPCM
| 15> %cpcm smd true
| 16> SMDsolvent "MeCN"
| 17> surfacetype gepol_ses
| 18> rsolv 2.19
| 19> end
| 20>
| 21> * xyz 0 1
| 22> C           2.42315162989794     -0.70625073295968     -0.00023486882347
| 23> C           2.42317026350847      0.70622279096101     -0.00020872749326
| 24> C           1.23962157644586      1.39854452802036     -0.00005482556429
| 25> C           0.00000896416852      0.71392742435081      0.00001686247135
| 26> C          -1.23959082077649      1.39856141408207      0.00008798419557
| 27> C          -2.42315104093630      0.70625469041557      0.00020160628416
| 28> C          -2.42315899353121     -0.70622052849373      0.00022999865423
| 29> C          -1.23961384606315     -1.39854722923966      0.00010627071071
| 30> C          -0.00000530234836     -0.71392383301040      0.00000963381264
| 31> C           1.23959288686174     -1.39855587384579     -0.00009790634584
| 32> H           1.23705397111526     -2.48106204865906      0.00002858185365
| 33> H          -1.23710136192235     -2.48106479690930     -0.00002225424215
| 34> H          -3.36397421468455     -1.23990700638307     -0.00017043225420
| 35> H          -3.36396599383394      1.23995912787947     -0.00024649767024
| 36> H          -1.23704603076990      2.48106965624082     -0.00005309149296
| 37> H           1.23710215764473      2.48106237155354      0.00011919398098
| 38> H           3.36398671780065      1.23991748375437      0.00019279959814
| 39> H           3.36395073742309     -1.23996533775737      0.00017207232501
| 40> *
| 41>
| 42>                          ****END OF INPUT****

CARTESIAN COORDINATES (ANGSTROEM)
---------------------------------
  C      2.423152   -0.706251   -0.000235
  C      2.423170    0.706223   -0.000209
  C      1.239622    1.398545   -0.000055
  C      0.000009    0.713927    0.000017
  C     -1.239591    1.398561    0.000088
  C     -2.423151    0.706255    0.000202
  C     -2.423159   -0.706221    0.000230
  C     -1.239614   -1.398547    0.000106
  C     -0.000005   -0.713924    0.000010
  C      1.239593   -1.398556   -0.000098
  H      1.237054   -2.481062    0.000029
  H     -1.237101   -2.481065   -0.000022
  H     -3.363974   -1.239907   -0.000170
  H     -3.363966    1.239959   -0.000246
  H     -1.237046    2.481070   -0.000053
  H      1.237102    2.481062    0.000119
  H      3.363987    1.239917    0.000193
  H      3.363951   -1.239965    0.000172

 Total Charge           Charge          ....    0
 Multiplicity           Mult            ....    1
 Number of Electrons    NEL             ....   68
 Basis Dimension        Dim             ....  644

ORBITAL ENERGIES
----------------

  NO   OCC          E(Eh)            E(eV)
   0   2.0000     -10.185291      -277.1559
   1   2.0000     -10.184813      -277.1429
   2   2.0000     -10.174520      -276.8628
   3   2.0000     -10.174503      -276.8623
   4   2.0000     -10.174430      -276.8603
   5   2.0000     -10.174419      -276.8600
   6   2.0000     -10.173747      -276.8417
   7   2.0000     -10.173744      -276.8416
   8   2.0000     -10.173345      -276.8308
   9   2.0000     -10.173337      -276.8306
  10   2.0000      -0.876742       -23.8574
  11   2.0000      -0.822585       -22.3837
  12   2.0000      -0.774325       -21.0705
  13   2.0000      -0.741156       -20.1679
  14   2.0000      -0.719052       -19.5664
  15   2.0000      -0.624643       -16.9974
  16   2.0000      -0.610974       -16.6254
  17   2.0000      -0.595139       -16.1945
  18   2.0000      -0.513420       -13.9709
  19   2.0000      -0.507076       -13.7982
  20   2.0000      -0.493178       -13.4201
  21   2.0000      -0.444190       -12.0870
  22   2.0000      -0.440746       -11.9933
  23   2.0000      -0.416487       -11.3332
  24   2.0000      -0.415242       -11.2993
  25   2.0000      -0.397331       -10.8119
  26   2.0000      -0.397194       -10.8082
  27   2.0000      -0.366431        -9.9711
  28   2.0000      -0.337286        -9.1780
  29   2.0000      -0.333444        -9.0735
  30   2.0000      -0.328678        -8.9438
  31   2.0000      -0.291464        -7.9311
  32   2.0000      -0.250106        -6.8057
  33   2.0000      -0.222106        -6.0438
  34   0.0000      -0.046759        -1.2724
  35   0.0000      -0.019744        -0.5373
  36   0.0000      -0.002456        -0.0668
  37   0.0000       0.008314         0.2262
  38   0.0000       0.008782         0.2390

MULLIKEN ATOMIC CHARGES
-----------------------
   0 C :   -0.404062
   1 C :   -0.402625
   2 C :   -1.162634
   3 C :    1.781599
   4 C :   -1.167641
   5 C :   -0.400006
   6 C :   -0.399049
   7 C :   -1.160406
   8 C :    1.783927
   9 C :   -1.161466
  10 H :    0.049939
  11 H :    0.049532
  12 H :    0.617308
  13 H :    0.626636
  14 H :    0.053374
  15 H :    0.044934
  16 H :    0.625029
  17 H :    0.625613
Sum of atomic charges:    0.0000000

LOEWDIN ATOMIC CHARGES
----------------------
   0 C :    0.198482
   1 C :    0.198481
   2 C :    0.214646
   3 C :   -0.127455
   4 C :    0.214645
   5 C :    0.198484
   6 C :    0.198480
   7 C :    0.214645
   8 C :   -0.127458
   9 C :    0.214650
  10 H :   -0.170916
  11 H :   -0.170905
  12 H :   -0.178492
  13 H :   -0.178483
  14 H :   -0.170915
  15 H :   -0.170909
  16 H :   -0.178487
  17 H :   -0.178493

  Mayer bond orders larger than 0.100000
B(  0-C ,  1-C ) :   1.1137 B(  0-C ,  3-C ) :  -0.2423 B(  0-C ,  9-C ) :   1.1839
B(  0-C , 17-H ) :   0.3413 B(  1-C ,  2-C ) :   1.1806 B(  1-C ,  8-C ) :  -0.2417
B(  1-C , 16-H ) :   0.3420 B(  2-C ,  3-C ) :  -0.2567 B(  2-C ,  4-C ) :   0.6629
B(  2-C ,  7-C ) :  -0.1053 B(  2-C ,  8-C ) :  -0.2507 B(  2-C , 15-H ) :   1.4095
B(  2-C , 16-H ) :  -0.2306 B(  3-C ,  4-C ) :  -0.2570 B(  3-C ,  6-C ) :  -0.2444
B(  3-C ,  7-C ) :  -0.2439 B(  3-C ,  8-C ) :   1.1933 B(  3-C ,  9-C ) :  -0.2445
B(  3-C , 14-H ) :  -0.1277 B(  3-C , 15-H ) :  -0.1314 B(  4-C ,  5-C ) :   1.1867
B(  4-C ,  8-C ) :  -0.2474 B(  4-C ,  9-C ) :  -0.1064 B(  4-C , 13-H ) :  -0.2297
B(  4-C , 14-H ) :   1.3957 B(  5-C ,  6-C ) :   1.1090 B(  5-C ,  8-C ) :  -0.2403
B(  5-C , 13-H ) :   0.3418 B(  6-C ,  7-C ) :   1.1811 B(  6-C , 12-H ) :   0.3538
B(  7-C ,  8-C ) :  -0.2518 B(  7-C ,  9-C ) :   0.6569 B(  7-C , 11-H ) :   1.3987
B(  7-C , 12-H ) :  -0.2276 B(  8-C ,  9-C ) :  -0.2564 B(  8-C , 10-H ) :  -0.1279
B(  8-C , 11-H ) :  -0.1282 B(  9-C , 10-H ) :   1.3992 B(  9-C , 17-H ) :  -0.2302

Dispersion correction           -0.036590272
FINAL SINGLE POINT ENERGY      -385.827504376284

DIPOLE MOMENT
-------------

Method             : SCF
Type of density    : Electron Density
Multiplicity       :   1
Irrep              :   0
Energy             :  -385.7909141045210504 Eh
Relativity type    :
Basis              : AO
                                X                 Y                 Z
Electronic contribution:      0.000004621      -0.000010912       0.000017854
Nuclear contribution   :     -0.000012546      -0.000000589      -0.000021495
                        -----------------------------------------
Total Dipole Moment    :     -0.000007925      -0.000011501      -0.000003641
                        -----------------------------------------
Magnitude (a.u.)       :      0.000014434
Magnitude (Debye)      :      0.000036689

VIBRATIONAL FREQUENCIES
-----------------------

Scaling factor for frequencies =  1.000000000  (already applied!)

     0:       0.00 cm**-1
     1:       0.00 cm**-1
     2:       0.00 cm**-1
     3:       0.00 cm**-1
     4:       0.00 cm**-1
     5:       0.00 cm**-1
     6:     170.61 cm**-1
     7:     175.92 cm**-1
     8:     350.21 cm**-1
     9:     395.55 cm**-1
    10:     476.96 cm**-1
    11:     485.59 cm**-1
    12:     511.16 cm**-1
    13:     516.05 cm**-1
    14:     598.54 cm**-1
    15:     624.75 cm**-1
    16:     730.40 cm**-1
    17:     769.00 cm**-1
    18:     792.79 cm**-1
    19:     801.88 cm**-1
    20:     805.19 cm**-1
    21:     851.84 cm**-1
    22:     909.79 cm**-1
    23:     944.08 cm**-1
    24:     974.57 cm**-1
    25:     994.04 cm**-1
    26:     999.88 cm**-1
    27:    1012.52 cm**-1
    28:    1019.64 cm**-1
    29:    1035.42 cm**-1
    30:    1136.65 cm**-1
    31:    1151.57 cm**-1
    32:    1156.01 cm**-1
    33:    1166.45 cm**-1
    34:    1218.65 cm**-1
    35:    1258.06 cm**-1
    36:    1280.59 cm**-1
    37:    1383.01 cm**-1
    38:    1397.30 cm**-1
    39:    1410.90 cm**-1
    40:    1483.27 cm**-1
    41:    1483.36 cm**-1
    42:    1541.35 cm**-1
    43:    1608.05 cm**-1
    44:    1633.59 cm**-1
    45:    1663.71 cm**-1
    46:    3156.52 cm**-1
    47:    3161.71 cm**-1
    48:    3163.77 cm**-1
    49:    3166.37 cm**-1
    50:    3175.93 cm**-1
    51:    3177.57 cm**-1
    52:    3188.73 cm**-1
    53:    3189.86 cm**-1

IR SPECTRUM
-----------

 Mode   freq       eps      Int      T**2         TX        TY        TZ
       cm**-1   L/(mol*cm) km/mol    a.u.
----------------------------------------------------------------------------
  6:    170.61   0.001087    5.49  0.001988  (-0.000114  0.000009 -0.044584)
  7:    175.92   0.000000    0.00  0.000000  (-0.000002 -0.000243  0.000048)
  8:    350.21   0.001116    5.64  0.000994  ( 0.000001  0.031533 -0.000003)
  9:    395.55   0.000000    0.00  0.000000  ( 0.000001 -0.000013 -0.000003)
 10:    476.96   0.000000    0.00  0.000000  ( 0.000019  0.000009 -0.000017)
 11:    485.59   0.010114   51.11  0.006500  (-0.000044 -0.000000  0.080623)
 12:    511.16   0.000000    0.00  0.000000  (-0.000008  0.000001 -0.000008)
 13:    516.05   0.000000    0.00  0.000000  (-0.000004  0.000001  0.000002)
 14:    598.54   0.000000    0.00  0.000000  (-0.000003  0.000022  0.000023)
 15:    624.75   0.001736    8.77  0.000867  ( 0.029444  0.000001 -0.000147)
 16:    730.40   0.000000    0.00  0.000000  ( 0.000005  0.000007  0.000003)
 17:    769.00   0.000000    0.00  0.000000  (-0.000004  0.000001  0.000000)
 18:    792.79   0.000000    0.00  0.000000  (-0.000006  0.000001 -0.000074)
 19:    801.88   0.046805  236.53  0.018215  ( 0.000002  0.000008 -0.134963)
 20:    805.19   0.000007    0.03  0.000003  (-0.000004 -0.001590 -0.000020)
 21:    851.84   0.000000    0.00  0.000000  (-0.000005  0.000250  0.000024)
 22:    909.79   0.000000    0.00  0.000000  (-0.000016  0.000005  0.000005)
 23:    944.08   0.000000    0.00  0.000000  ( 0.000010 -0.000000  0.000004)
 24:    974.57   0.000000    0.00  0.000000  ( 0.000001  0.000021  0.000028)
 25:    994.04   0.001737    8.78  0.000545  (-0.000467  0.000003  0.023345)
 26:    999.88   0.000000    0.00  0.000000  (-0.000009  0.000262  0.000088)
 27:   1012.52   0.000000    0.00  0.000000  ( 0.000015 -0.000011 -0.000005)
 28:   1019.64   0.006443   32.56  0.001972  ( 0.044405 -0.000002  0.000320)
 29:   1035.42   0.000000    0.00  0.000000  ( 0.000006 -0.000002 -0.000002)
 30:   1136.65   0.002475   12.51  0.000679  (-0.000001  0.026066 -0.000000)
 31:   1151.57   0.000000    0.00  0.000000  ( 0.000020  0.000004 -0.000003)
 32:   1156.01   0.000188    0.95  0.000051  ( 0.007131  0.000003  0.000035)
 33:   1166.45   0.000000    0.00  0.000000  (-0.000008  0.000007  0.000001)
 34:   1218.65   0.000142    0.72  0.000036  ( 0.006039  0.000007  0.000024)
 35:   1258.06   0.000000    0.00  0.000000  ( 0.000020  0.000006  0.000004)
 36:   1280.59   0.001174    5.93  0.000286  (-0.000001  0.016915  0.000001)
 37:   1383.01   0.000245    1.24  0.000055  ( 0.007434  0.000002  0.000058)
 38:   1397.30   0.000000    0.00  0.000000  (-0.000003  0.000008 -0.000001)
 39:   1410.90   0.002512   12.69  0.000556  ( 0.000000 -0.023570 -0.000001)
 40:   1483.27   0.000000    0.00  0.000000  ( 0.000007 -0.000002  0.000001)
 41:   1483.36   0.000000    0.00  0.000000  (-0.000006  0.000002  0.000003)
 42:   1541.35   0.003555   17.97  0.000720  ( 0.026828 -0.000002 -0.000019)
 43:   1608.05   0.000000    0.00  0.000000  (-0.000001  0.000002 -0.000000)
 44:   1633.59   0.000700    3.54  0.000134  ( 0.000002  0.011560  0.000000)
 45:   1663.71   0.000000    0.00  0.000000  ( 0.000008 -0.000000  0.000001)
 46:   3156.52   0.000000    0.00  0.000000  ( 0.000017  0.000023 -0.000000)
 47:   3161.71   0.002681   13.55  0.000265  (-0.000040  0.016268  0.000000)
 48:   3163.77   0.000232    1.17  0.000023  ( 0.004779  0.000134 -0.000059)
 49:   3166.37   0.000000    0.00  0.000000  (-0.000009 -0.000072 -0.000000)
 50:   3175.93   0.000000    0.00  0.000000  ( 0.000063 -0.000188 -0.000000)
 51:   3177.57   0.017345   87.66  0.001703  (-0.000018 -0.041273 -0.000000)
 52:   3188.73   0.012836   64.87  0.001256  ( 0.035443 -0.000020 -0.000125)
 53:   3189.86   0.000000    0.00  0.000000  (-0.000094  0.000069  0.000001)

--------------------------
THERMOCHEMISTRY AT 298.15K
--------------------------

Temperature         ...   298.15 K
Pressure            ...     1.00 atm
Total Mass          ...   128.17 AMU
Quasi RRHO          ...     True
Cut-Off Frequency   ...     1.00 cm^-1

Throughout the following assumptions are being made:
  (1) The electronic state is orbitally nondegenerate
  (2) There are no thermally accessible electronically excited states
  (3) Hindered rotations indicated by low frequency modes are not
      treated as such but are treated as vibrations and this may
      cause some error
  (4) All equations used are the standard statistical mechanics
      equations for an ideal gas
  (5) All vibrations are strictly harmonic

freq.     170.61  E(vib)   ...       0.38
freq.     175.92  E(vib)   ...       0.38
freq.     350.21  E(vib)   ...       0.23
freq.     395.55  E(vib)   ...       0.20
freq.     476.96  E(vib)   ...       0.15
freq.     485.59  E(vib)   ...       0.15
freq.     511.16  E(vib)   ...       0.14
freq.     516.05  E(vib)   ...       0.13
freq.     598.54  E(vib)   ...       0.10
freq.     624.75  E(vib)   ...       0.09
freq.     730.40  E(vib)   ...       0.06
freq.     769.00  E(vib)   ...       0.06
freq.     792.79  E(vib)   ...       0.05
freq.     801.88  E(vib)   ...       0.05
freq.     805.19  E(vib)   ...       0.05
freq.     851.84  E(vib)   ...       0.04
freq.     909.79  E(vib)   ...       0.03
freq.     944.08  E(vib)   ...       0.03
freq.     974.57  E(vib)   ...       0.03
freq.     994.04  E(vib)   ...       0.02
freq.     999.88  E(vib)   ...       0.02
freq.    1012.52  E(vib)   ...       0.02
freq.    1019.64  E(vib)   ...       0.02
freq.    1035.42  E(vib)   ...       0.02
freq.    1136.65  E(vib)   ...       0.01
freq.    1151.57  E(vib)   ...       0.01
freq.    1156.01  E(vib)   ...       0.01
freq.    1166.45  E(vib)   ...       0.01
freq.    1218.65  E(vib)   ...       0.01
freq.    1258.06  E(vib)   ...       0.01
freq.    1280.59  E(vib)   ...       0.01
freq.    1383.01  E(vib)   ...       0.01
freq.    1397.30  E(vib)   ...       0.00
freq.    1410.90  E(vib)   ...       0.00
freq.    1483.27  E(vib)   ...       0.00
freq.    1483.36  E(vib)   ...       0.00
freq.    1541.35  E(vib)   ...       0.00
freq.    1608.05  E(vib)   ...       0.00
freq.    1633.59  E(vib)   ...       0.00
freq.    1663.71  E(vib)   ...       0.00
freq.    3156.52  E(vib)   ...       0.00
freq.    3161.71  E(vib)   ...       0.00
freq.    3163.77  E(vib)   ...       0.00
freq.    3166.37  E(vib)   ...       0.00
freq.    3175.93  E(vib)   ...       0.00
freq.    3177.57  E(vib)   ...       0.00
freq.    3188.73  E(vib)   ...       0.00
freq.    3189.86  E(vib)   ...       0.00

------------
INNER ENERGY
------------

The inner energy is: U= E(el) + E(ZPE) + E(vib) + E(rot) + E(trans)
    E(el)   - is the total energy from the electronic structure calculation
              = E(kin-el) + E(nuc-el) + E(el-el) + E(nuc-nuc)
    E(ZPE)  - the the zero temperature vibrational energy from the frequency calculation
    E(vib)  - the the finite temperature correction to E(ZPE) due to population
              of excited vibrational states
    E(rot)  - is the rotational thermal energy
    E(trans)- is the translational thermal energy

Summary of contributions to the inner energy U:
Electronic energy                ...   -385.82750438 Eh
Zero point energy                ...      0.14648475 Eh      91.92 kcal/mol
Thermal vibrational correction   ...      0.00406627 Eh       2.55 kcal/mol
Thermal rotational correction    ...      0.00141627 Eh       0.89 kcal/mol
Thermal translational correction ...      0.00141627 Eh       0.89 kcal/mol
-----------------------------------------------------------------------
Total thermal energy                   -385.67412081 Eh

Summary of corrections to the electronic energy:
(perhaps to be used in another calculation)
Total thermal correction                  0.00689881 Eh       4.33 kcal/mol
Non-thermal (ZPE) correction              0.14648475 Eh      91.92 kcal/mol
-----------------------------------------------------------------------
Total correction                          0.15338356 Eh      96.25 kcal/mol

--------
ENTHALPY
--------

The enthalpy is H = U + kB*T
                kB is Boltzmann's constant
Total thermal energy              ...   -385.67412081 Eh
Thermal Enthalpy correction       ...      0.00094421 Eh       0.59 kcal/mol
-----------------------------------------------------------------------
Total Enthalpy                    ...   -385.67317660 Eh

Note: Rotational entropy computed according to Herzberg
Infrared and Raman Spectra, Chapter V,1, Van Nostrand Reinhold, 1945
Point Group:  Ci, Symmetry Number:   1
Rotational constants in cm-1:     0.104578     0.041346     0.029631

Vibrational entropy computed according to the QRRHO of S. Grimme
Chem.Eur.J. 2012 18 9955 using a reference frequency of 100.0 cm-1

-------
ENTROPY
-------

The entropy contributions are T*S = T*(S(el)+S(vib)+S(rot)+S(trans))
     S(el)   - electronic entropy
     S(vib)  - vibrational entropy
     S(rot)  - rotational entropy
     S(trans)- translational entropy
The entropies will be listed as multiplied by the temperature to get
units of energy

Electronic entropy                ...      0.00000000 Eh      0.00 kcal/mol
Vibrational entropy               ...      0.00616339 Eh      3.87 kcal/mol
Rotational entropy                ...      0.01374194 Eh      8.62 kcal/mol
Translational entropy             ...      0.01922279 Eh     12.06 kcal/mol
-----------------------------------------------------------------------
Final entropy term                ...      0.03912811 Eh     24.55 kcal/mol

In case the symmetry of your molecule has not been determined correctly
or in case you have a reason to use a different symmetry number we print
out the resulting rotational entropy values for sn=1,12:

 non-linear molecules -----------------------------------
|  sn= 1 | S(rot)=       0.01374194 Eh      8.62 kcal/mol|
|  sn= 2 | S(rot)=       0.01308748 Eh      8.21 kcal/mol|
|  sn= 3 | S(rot)=       0.01270465 Eh      7.97 kcal/mol|
|  sn= 4 | S(rot)=       0.01243303 Eh      7.80 kcal/mol|
|  sn= 5 | S(rot)=       0.01222234 Eh      7.67 kcal/mol|
|  sn= 6 | S(rot)=       0.01205020 Eh      7.56 kcal/mol|
|  sn= 7 | S(rot)=       0.01190465 Eh      7.47 kcal/mol|
|  sn= 8 | S(rot)=       0.01177857 Eh      7.39 kcal/mol|
|  sn= 9 | S(rot)=       0.01166736 Eh      7.32 kcal/mol|
|  sn=10 | S(rot)=       0.01156788 Eh      7.26 kcal/mol|
|  sn=11 | S(rot)=       0.01147789 Eh      7.20 kcal/mol|
|  sn=12 | S(rot)=       0.01139574 Eh      7.15 kcal/mol|
 linear molecules ---------------------------------------
|  Dinfh | S(rot)=       0.00864832 Eh      5.43 kcal/mol|
|  Cinfv | S(rot)=       0.00930277 Eh      5.84 kcal/mol|
 --------------------------------------------------------

                             ****ORCA TERMINATED NORMALLY****
TOTAL RUN TIME: 0 days 0 hours 45 minutes 4 seconds 258 msec
