                         Program Version 6.0.0  -   RELEASE  -
|  1> !B3LYP freq aug-cc-pVTZ d3 TightSCF SlowConv RIJCOSX defgrid2
|  2>
|  3> %pal
|  4> nprocs 12
|  5>
|  6> end
|  7>
|  8> %scf
|  9> MaxIter 1500
| 10> end
| 11>
| 12> %maxcore 5000
| 13>
| 14> !CPCM
| 15> %cpcm smd true
| 16> SMDsolvent "MeCN"
| 17> surfacetype gepol_ses
| 18> rsolv 2.19
| 19> end
| 20>
| 21> * xyz -1 2
| 22> C          -1.17531686143866     -1.25503786699642     -0.00042503154807
| 23> C          -2.51789319116051     -0.94596137316518     -0.00047378694648
| 24> C          -2.95990558758292      0.38606547743255     -0.00016872741316
| 25> C          -1.99631179783014      1.40774896144987      0.00024008078404
| 26> C          -0.64660237396929      1.12737046190404      0.00036661347298
| 27> C          -0.17559684772756     -0.22183537679317      0.00003208921364
| 28> C           1.16776629039477     -0.63434355599786      0.00013945472850
| 29> O           1.70305584781364     -1.73062749332088     -0.00042617971145
| 30> Cl          2.44100967447567      0.87070663847941      0.00095066522740
| 31> H           0.06788691007734      1.93555481328118      0.00090837003164
| 32> H          -2.31516818310981      2.44320063246723      0.00101439341044
| 33> H          -4.01554824988700      0.61923553468138      0.00001012816976
| 34> H          -3.24261857799848     -1.75149540884333     -0.00083880310168
| 35> H          -0.85543435205704     -2.28757144457884     -0.00078376631755
| 36> *
| 37>
| 38>                          ****END OF INPUT****

CARTESIAN COORDINATES (ANGSTROEM)
---------------------------------
  C     -1.175317   -1.255038   -0.000425
  C     -2.517893   -0.945961   -0.000474
  C     -2.959906    0.386065   -0.000169
  C     -1.996312    1.407749    0.000240
  C     -0.646602    1.127370    0.000367
  C     -0.175597   -0.221835    0.000032
  C      1.167766   -0.634344    0.000139
  O      1.703056   -1.730627   -0.000426
  Cl     2.441010    0.870707    0.000951
  H      0.067887    1.935555    0.000908
  H     -2.315168    2.443201    0.001014
  H     -4.015548    0.619236    0.000010
  H     -3.242619   -1.751495   -0.000839
  H     -0.855434   -2.287571   -0.000784

 Total Charge           Charge          ....   -1
 Multiplicity           Mult            ....    2
 Number of Electrons    NEL             ....   73
 Basis Dimension        Dim             ....  533

ORBITAL ENERGIES
----------------
                 SPIN UP ORBITALS
  NO   OCC          E(Eh)            E(eV)
   0   1.0000    -101.506787     -2762.1401
   1   1.0000     -19.096796      -519.6502
   2   1.0000     -10.247874      -278.8588
   3   1.0000     -10.167349      -276.6676
   4   1.0000     -10.157257      -276.3930
   5   1.0000     -10.156505      -276.3726
   6   1.0000     -10.155581      -276.3474
   7   1.0000     -10.154648      -276.3220
   8   1.0000     -10.149071      -276.1703
   9   1.0000      -9.411368      -256.0963
  10   1.0000      -7.172371      -195.1701
  11   1.0000      -7.166985      -195.0236
  12   1.0000      -7.166452      -195.0091
  13   1.0000      -1.020982       -27.7823
  14   1.0000      -0.838153       -22.8073
  15   1.0000      -0.779015       -21.1981
  16   1.0000      -0.738680       -20.1005
  17   1.0000      -0.729722       -19.8567
  18   1.0000      -0.628278       -17.0963
  19   1.0000      -0.582563       -15.8523
  20   1.0000      -0.534623       -14.5478
  21   1.0000      -0.484716       -13.1898
  22   1.0000      -0.445585       -12.1250
  23   1.0000      -0.439208       -11.9515
  24   1.0000      -0.413806       -11.2602
  25   1.0000      -0.405286       -11.0284
  26   1.0000      -0.403280       -10.9738
  27   1.0000      -0.389921       -10.6103
  28   1.0000      -0.349529        -9.5112
  29   1.0000      -0.343856        -9.3568
  30   1.0000      -0.318076        -8.6553
  31   1.0000      -0.285026        -7.7559
  32   1.0000      -0.282930        -7.6989
  33   1.0000      -0.253353        -6.8941
  34   1.0000      -0.251205        -6.8356
  35   1.0000      -0.249975        -6.8022
  36   1.0000      -0.111740        -3.0406
  37   0.0000      -0.003854        -0.1049
  38   0.0000       0.000650         0.0177
  39   0.0000       0.010972         0.2986
  40   0.0000       0.016957         0.4614
  41   0.0000       0.024563         0.6684

                 SPIN DOWN ORBITALS
  NO   OCC          E(Eh)            E(eV)
   0   1.0000    -101.506784     -2762.1400
   1   1.0000     -19.091371      -519.5026
   2   1.0000     -10.242906      -278.7236
   3   1.0000     -10.167147      -276.6621
   4   1.0000     -10.158475      -276.4261
   5   1.0000     -10.157648      -276.4036
   6   1.0000     -10.152817      -276.2722
   7   1.0000     -10.152013      -276.2503
   8   1.0000     -10.144945      -276.0580
   9   1.0000      -9.411364      -256.0962
  10   1.0000      -7.172606      -195.1765
  11   1.0000      -7.166724      -195.0165
  12   1.0000      -7.166459      -195.0093
  13   1.0000      -1.010729       -27.5033
  14   1.0000      -0.833965       -22.6933
  15   1.0000      -0.776370       -21.1261
  16   1.0000      -0.733615       -19.9627
  17   1.0000      -0.726277       -19.7630
  18   1.0000      -0.616727       -16.7820
  19   1.0000      -0.581047       -15.8111
  20   1.0000      -0.530836       -14.4448
  21   1.0000      -0.479685       -13.0529
  22   1.0000      -0.442852       -12.0506
  23   1.0000      -0.434200       -11.8152
  24   1.0000      -0.412089       -11.2135
  25   1.0000      -0.402414       -10.9502
  26   1.0000      -0.386669       -10.5218
  27   1.0000      -0.380013       -10.3407
  28   1.0000      -0.341465        -9.2917
  29   1.0000      -0.334603        -9.1050
  30   1.0000      -0.317078        -8.6281
  31   1.0000      -0.282379        -7.6839
  32   1.0000      -0.279134        -7.5956
  33   1.0000      -0.250413        -6.8141
  34   1.0000      -0.240258        -6.5377
  35   1.0000      -0.231043        -6.2870
  36   0.0000      -0.037926        -1.0320
  37   0.0000      -0.002947        -0.0802
  38   0.0000       0.005706         0.1553
  39   0.0000       0.011828         0.3219
  40   0.0000       0.016754         0.4559

MULLIKEN ATOMIC CHARGES AND SPIN POPULATIONS
--------------------------------------------
   0 C :   -0.883466    0.220803
   1 C :   -0.431267   -0.084033
   2 C :   -0.395035    0.297088
   3 C :   -0.653002   -0.080331
   4 C :   -0.906853    0.206752
   5 C :    1.618985    0.044886
   6 C :    0.406787    0.253619
   7 O :   -0.817647    0.199504
   8 Cl:   -0.506573    0.002465
   9 H :    0.134417   -0.018250
  10 H :    0.492624   -0.001709
  11 H :    0.420816   -0.012812
  12 H :    0.418933   -0.003925
  13 H :    0.101282   -0.024055
Sum of atomic charges         :   -1.0000000

LOEWDIN ATOMIC CHARGES AND SPIN POPULATIONS
-------------------------------------------
   0 C :    0.141911    0.096852
   1 C :    0.141377    0.031257
   2 C :    0.151537    0.132790
   3 C :    0.139142    0.032124
   4 C :    0.105033    0.093795
   5 C :   -0.326307    0.114242
   6 C :   -1.078962    0.213807
   7 O :    0.292074    0.195317
   8 Cl:    0.513991    0.022297
   9 H :   -0.279349    0.020066
  10 H :   -0.192537   -0.004838
  11 H :   -0.207080    0.035797
  12 H :   -0.191604   -0.005359
  13 H :   -0.209225    0.021852

  Mayer bond orders larger than 0.100000
B(  0-C ,  1-C ) :   1.2711 B(  0-C ,  4-C ) :  -0.2266 B(  0-C ,  5-C ) :   0.3175
B(  0-C ,  6-C ) :   0.2328 B(  0-C , 11-H ) :   0.1024 B(  0-C , 12-H ) :  -0.1452
B(  0-C , 13-H ) :   1.0914 B(  1-C ,  2-C ) :   1.0652 B(  1-C , 11-H ) :  -0.1074
B(  1-C , 12-H ) :   0.7178 B(  2-C ,  3-C ) :   1.1006 B(  2-C ,  5-C ) :  -0.1316
B(  2-C ,  6-C ) :   0.1332 B(  2-C , 11-H ) :   0.7485 B(  3-C ,  4-C ) :   1.2390
B(  3-C , 10-H ) :   0.6046 B(  3-C , 11-H ) :  -0.1012 B(  4-C ,  6-C ) :   0.4067
B(  4-C ,  9-H ) :   1.4114 B(  4-C , 10-H ) :  -0.1537 B(  4-C , 13-H ) :   0.1042
B(  5-C ,  6-C ) :   0.6909 B(  5-C ,  7-O ) :   0.2208 B(  5-C ,  9-H ) :  -0.1275
B(  5-C , 13-H ) :  -0.1206 B(  6-C ,  7-O ) :   0.8455 B(  6-C ,  8-Cl) :   0.6745
B(  7-O ,  8-Cl) :   0.1100 B(  7-O , 13-H ) :   0.1542

Dispersion correction           -0.028039818
FINAL SINGLE POINT ENERGY      -805.219264392162

DIPOLE MOMENT
-------------

Method             : SCF
Type of density    : Electron Density
Multiplicity       :   2
Irrep              :   0
Energy             :  -805.1912245740414846 Eh
Relativity type    :
Basis              : AO
                                X                 Y                 Z
Electronic contribution:     10.935007706       1.019979083       0.001891035
Nuclear contribution   :    -13.057793297      -0.354778221      -0.001558798
                        -----------------------------------------
Total Dipole Moment    :     -2.122785591       0.665200862       0.000332237
                        -----------------------------------------
Magnitude (a.u.)       :      2.224569837
Magnitude (Debye)      :      5.654407163

VIBRATIONAL FREQUENCIES
-----------------------

Scaling factor for frequencies =  1.000000000  (already applied!)

     0:       0.00 cm**-1
     1:       0.00 cm**-1
     2:       0.00 cm**-1
     3:       0.00 cm**-1
     4:       0.00 cm**-1
     5:       0.00 cm**-1
     6:      80.32 cm**-1
     7:     136.48 cm**-1
     8:     168.78 cm**-1
     9:     235.48 cm**-1
    10:     328.32 cm**-1
    11:     340.29 cm**-1
    12:     432.68 cm**-1
    13:     476.10 cm**-1
    14:     476.30 cm**-1
    15:     597.02 cm**-1
    16:     625.06 cm**-1
    17:     681.66 cm**-1
    18:     713.08 cm**-1
    19:     802.55 cm**-1
    20:     806.34 cm**-1
    21:     827.88 cm**-1
    22:     979.40 cm**-1
    23:     979.84 cm**-1
    24:     985.46 cm**-1
    25:    1011.40 cm**-1
    26:    1090.49 cm**-1
    27:    1148.13 cm**-1
    28:    1171.84 cm**-1
    29:    1224.69 cm**-1
    30:    1305.29 cm**-1
    31:    1344.03 cm**-1
    32:    1441.39 cm**-1
    33:    1482.36 cm**-1
    34:    1525.70 cm**-1
    35:    1593.23 cm**-1
    36:    1728.45 cm**-1
    37:    3148.22 cm**-1
    38:    3151.85 cm**-1
    39:    3180.62 cm**-1
    40:    3186.33 cm**-1
    41:    3206.63 cm**-1

IR SPECTRUM
-----------

 Mode   freq       eps      Int      T**2         TX        TY        TZ
       cm**-1   L/(mol*cm) km/mol    a.u.
----------------------------------------------------------------------------
  6:     80.32   0.000042    0.21  0.000164  (-0.000169 -0.000334 -0.012800)
  7:    136.48   0.000090    0.45  0.000205  (-0.000359 -0.000508  0.014308)
  8:    168.78   0.002576   13.02  0.004763  ( 0.049191  0.048408  0.000102)
  9:    235.48   0.031483  159.10  0.041722  ( 0.146685  0.142147  0.000249)
 10:    328.32   0.000008    0.04  0.000007  (-0.000250  0.000153 -0.002655)
 11:    340.29   0.002973   15.03  0.002727  ( 0.022796  0.046979 -0.000090)
 12:    432.68   0.000068    0.34  0.000049  ( 0.000037  0.000020 -0.006998)
 13:    476.10   0.007034   35.55  0.004610  (-0.007394 -0.002206  0.067459)
 14:    476.30   0.008028   40.57  0.005260  ( 0.068909  0.021524  0.006936)
 15:    597.02   0.056312  284.58  0.029434  (-0.129031 -0.113071 -0.000063)
 16:    625.06   0.000480    2.43  0.000240  ( 0.014136  0.006305 -0.000262)
 17:    681.66   0.025654  129.64  0.011744  ( 0.000004  0.000125 -0.108371)
 18:    713.08   0.012417   62.75  0.005434  (-0.000081  0.000056 -0.073716)
 19:    802.55   0.032952  166.53  0.012813  (-0.067178 -0.091105 -0.000065)
 20:    806.34   0.000067    0.34  0.000026  ( 0.000873  0.001167  0.004868)
 21:    827.88   0.003206   16.20  0.001209  ( 0.000088 -0.000073 -0.034764)
 22:    979.40   0.000008    0.04  0.000003  ( 0.000586 -0.000608 -0.001398)
 23:    979.84   0.000004    0.02  0.000001  (-0.000157  0.000387 -0.000985)
 24:    985.46   0.007092   35.84  0.002246  ( 0.035598 -0.031283  0.000061)
 25:   1011.40   0.018303   92.50  0.005647  (-0.072021  0.021452  0.000063)
 26:   1090.49   0.001954    9.88  0.000559  ( 0.019830 -0.012885  0.000019)
 27:   1148.13   0.002299   11.62  0.000625  ( 0.008808 -0.023396  0.000029)
 28:   1171.84   0.013360   67.51  0.003558  ( 0.031132 -0.050878 -0.000016)
 29:   1224.69   0.027398  138.46  0.006981  (-0.013999 -0.082373 -0.000049)
 30:   1305.29   0.004925   24.89  0.001177  ( 0.031905  0.012632 -0.000019)
 31:   1344.03   0.007252   36.65  0.001684  (-0.013187 -0.038857 -0.000070)
 32:   1441.39   0.002945   14.88  0.000638  (-0.017765  0.017942  0.000016)
 33:   1482.36   0.012542   63.38  0.002640  (-0.038523  0.034006  0.000022)
 34:   1525.70   0.003529   17.84  0.000722  (-0.012104  0.023987 -0.000018)
 35:   1593.23   0.075316  380.61  0.014752  (-0.110321  0.050805  0.000048)
 36:   1728.45   0.196259  991.81  0.035434  (-0.126945  0.138991  0.000039)
 37:   3148.22   0.002616   13.22  0.000259  (-0.015445 -0.004558 -0.000019)
 38:   3151.85   0.008089   40.88  0.000801  ( 0.001714  0.028249 -0.000075)
 39:   3180.62   0.005278   26.67  0.000518  ( 0.013713 -0.018159  0.000040)
 40:   3186.33   0.005831   29.47  0.000571  ( 0.020263  0.012671  0.000014)
 41:   3206.63   0.001392    7.03  0.000135  ( 0.000858  0.011607  0.000011)

--------------------------
THERMOCHEMISTRY AT 298.15K
--------------------------

Temperature         ...   298.15 K
Pressure            ...     1.00 atm
Total Mass          ...   140.57 AMU
Quasi RRHO          ...     True
Cut-Off Frequency   ...     1.00 cm^-1

Throughout the following assumptions are being made:
  (1) The electronic state is orbitally nondegenerate
      but the spin degeneracy is treated
  (2) There are no thermally accessible electronically excited states
  (3) Hindered rotations indicated by low frequency modes are not
      treated as such but are treated as vibrations and this may
      cause some error
  (4) All equations used are the standard statistical mechanics
      equations for an ideal gas
  (5) All vibrations are strictly harmonic

freq.      80.32  E(vib)   ...       0.49
freq.     136.48  E(vib)   ...       0.42
freq.     168.78  E(vib)   ...       0.38
freq.     235.48  E(vib)   ...       0.32
freq.     328.32  E(vib)   ...       0.24
freq.     340.29  E(vib)   ...       0.23
freq.     432.68  E(vib)   ...       0.18
freq.     476.10  E(vib)   ...       0.15
freq.     476.30  E(vib)   ...       0.15
freq.     597.02  E(vib)   ...       0.10
freq.     625.06  E(vib)   ...       0.09
freq.     681.66  E(vib)   ...       0.08
freq.     713.08  E(vib)   ...       0.07
freq.     802.55  E(vib)   ...       0.05
freq.     806.34  E(vib)   ...       0.05
freq.     827.88  E(vib)   ...       0.04
freq.     979.40  E(vib)   ...       0.03
freq.     979.84  E(vib)   ...       0.02
freq.     985.46  E(vib)   ...       0.02
freq.    1011.40  E(vib)   ...       0.02
freq.    1090.49  E(vib)   ...       0.02
freq.    1148.13  E(vib)   ...       0.01
freq.    1171.84  E(vib)   ...       0.01
freq.    1224.69  E(vib)   ...       0.01
freq.    1305.29  E(vib)   ...       0.01
freq.    1344.03  E(vib)   ...       0.01
freq.    1441.39  E(vib)   ...       0.00
freq.    1482.36  E(vib)   ...       0.00
freq.    1525.70  E(vib)   ...       0.00
freq.    1593.23  E(vib)   ...       0.00
freq.    1728.45  E(vib)   ...       0.00
freq.    3148.22  E(vib)   ...       0.00
freq.    3151.85  E(vib)   ...       0.00
freq.    3180.62  E(vib)   ...       0.00
freq.    3186.33  E(vib)   ...       0.00
freq.    3206.63  E(vib)   ...       0.00

------------
INNER ENERGY
------------

The inner energy is: U= E(el) + E(ZPE) + E(vib) + E(rot) + E(trans)
    E(el)   - is the total energy from the electronic structure calculation
              = E(kin-el) + E(nuc-el) + E(el-el) + E(nuc-nuc)
    E(ZPE)  - the the zero temperature vibrational energy from the frequency calculation
    E(vib)  - the the finite temperature correction to E(ZPE) due to population
              of excited vibrational states
    E(rot)  - is the rotational thermal energy
    E(trans)- is the translational thermal energy

Summary of contributions to the inner energy U:
Electronic energy                ...   -805.21926439 Eh
Zero point energy                ...      0.09708118 Eh      60.92 kcal/mol
Thermal vibrational correction   ...      0.00511744 Eh       3.21 kcal/mol
Thermal rotational correction    ...      0.00141627 Eh       0.89 kcal/mol
Thermal translational correction ...      0.00141627 Eh       0.89 kcal/mol
-----------------------------------------------------------------------
Total thermal energy                   -805.11423323 Eh

Summary of corrections to the electronic energy:
(perhaps to be used in another calculation)
Total thermal correction                  0.00794998 Eh       4.99 kcal/mol
Non-thermal (ZPE) correction              0.09708118 Eh      60.92 kcal/mol
-----------------------------------------------------------------------
Total correction                          0.10503116 Eh      65.91 kcal/mol

--------
ENTHALPY
--------

The enthalpy is H = U + kB*T
                kB is Boltzmann's constant
Total thermal energy              ...   -805.11423323 Eh
Thermal Enthalpy correction       ...      0.00094421 Eh       0.59 kcal/mol
-----------------------------------------------------------------------
Total Enthalpy                    ...   -805.11328902 Eh

Note: Only C1 symmetry has been detected, increase convergence thresholds
      if your molecule has a higher symmetry. Symmetry factor of 1.0 is
      used for the rotational entropy correction.

Note: Rotational entropy computed according to Herzberg
Infrared and Raman Spectra, Chapter V,1, Van Nostrand Reinhold, 1945
Point Group:  C1, Symmetry Number:   1
Rotational constants in cm-1:     0.099738     0.030190     0.023175

Vibrational entropy computed according to the QRRHO of S. Grimme
Chem.Eur.J. 2012 18 9955 using a reference frequency of 100.0 cm-1

-------
ENTROPY
-------

The entropy contributions are T*S = T*(S(el)+S(vib)+S(rot)+S(trans))
     S(el)   - electronic entropy
     S(vib)  - vibrational entropy
     S(rot)  - rotational entropy
     S(trans)- translational entropy
The entropies will be listed as multiplied by the temperature to get
units of energy

Electronic entropy                ...      0.00065446 Eh      0.41 kcal/mol
Vibrational entropy               ...      0.00851619 Eh      5.34 kcal/mol
Rotational entropy                ...      0.01402879 Eh      8.80 kcal/mol
Translational entropy             ...      0.01935352 Eh     12.14 kcal/mol
-----------------------------------------------------------------------
Final entropy term                ...      0.04255296 Eh     26.70 kcal/mol

In case the symmetry of your molecule has not been determined correctly
or in case you have a reason to use a different symmetry number we print
out the resulting rotational entropy values for sn=1,12:

 non-linear molecules -----------------------------------
|  sn= 1 | S(rot)=       0.01402879 Eh      8.80 kcal/mol|
|  sn= 2 | S(rot)=       0.01337433 Eh      8.39 kcal/mol|
|  sn= 3 | S(rot)=       0.01299150 Eh      8.15 kcal/mol|
|  sn= 4 | S(rot)=       0.01271987 Eh      7.98 kcal/mol|
|  sn= 5 | S(rot)=       0.01250919 Eh      7.85 kcal/mol|
|  sn= 6 | S(rot)=       0.01233704 Eh      7.74 kcal/mol|
|  sn= 7 | S(rot)=       0.01219150 Eh      7.65 kcal/mol|
|  sn= 8 | S(rot)=       0.01206542 Eh      7.57 kcal/mol|
|  sn= 9 | S(rot)=       0.01195421 Eh      7.50 kcal/mol|
|  sn=10 | S(rot)=       0.01185473 Eh      7.44 kcal/mol|
|  sn=11 | S(rot)=       0.01176474 Eh      7.38 kcal/mol|
|  sn=12 | S(rot)=       0.01168259 Eh      7.33 kcal/mol|
 linear molecules ---------------------------------------
|  Dinfh | S(rot)=       0.00888035 Eh      5.57 kcal/mol|
|  Cinfv | S(rot)=       0.00953481 Eh      5.98 kcal/mol|
 --------------------------------------------------------

-------------------
GIBBS FREE ENERGY
-------------------

The Gibbs free energy is G = H - T*S

                             ****ORCA TERMINATED NORMALLY****
TOTAL RUN TIME: 0 days 0 hours 27 minutes 26 seconds 585 msec
