                         Program Version 6.0.0  -   RELEASE  -
|  1> !r2SCANh aug-cc-pVTZ d3 TightSCF SlowConv RIJCOSX defgrid2
|  2>
|  3> %pal
|  4> nprocs 4
|  5> end
|  6>
|  7> %scf
|  8> MaxIter 1500
|  9> end
| 10>
| 11> %maxcore 3000
| 12>
| 13> !CPCM
| 14> %cpcm smd true
| 15> SMDsolvent "MeCN"
| 16> surfacetype gepol_ses
| 17> rsolv 2.19
| 18> end
| 19>
| 20> * xyz 0 1
| 21> C          -0.33578897576289      0.78706332413970     -0.00007064342653
| 22> C          -1.63104450940735      0.25443214150099      0.00002424994707
| 23> C          -1.80666505085776     -1.13184792287007      0.00010488474499
| 24> C          -0.67709514280741     -1.95709297790421      0.00008171672668
| 25> C           0.60485199074243     -1.42986794226310     -0.00000896897667
| 26> C           0.79403740595386     -0.03404919740528     -0.00007754792200
| 27> C           2.11776775675579      0.59942775277408     -0.00015788147995
| 28> C           3.31301096591764     -0.01037680773538      0.00016998990263
| 29> C           4.62672268480693      0.69670422006693      0.00006613977785
| 30> H           5.22986800286636      0.42062681248378     -0.88556810108390
| 31> H           5.22969209158747      0.42121685919020      0.88600364391119
| 32> H           4.49947065542959      1.79239087728672     -0.00031400154329
| 33> H           3.35830731979376     -1.10765129675188      0.00055685548665
| 34> H           2.10183131012046      1.69773297660842     -0.00050241232510
| 35> H           1.46480294351024     -2.10372145346859     -0.00005885954138
| 36> H          -0.81507815522221     -3.04272899333565      0.00012435061663
| 37> H          -2.80202830314914     -1.57931173714880      0.00017356816380
| 38> O          -2.63880088575063      1.15236499149081      0.00002597094029
| 39> C          -3.95583677666632      0.68525859520605      0.00017372040280
| 40> H          -4.60351833384684      1.57486457447649      0.00019490121742
| 41> H          -4.17725863855936      0.08018155004781      0.90083429325456
| 42> H          -4.17743481291300      0.08009944047560     -0.90038823724126
| 43> H          -0.23264934254160      1.87564721313537     -0.00013303155248
| 44> *
| 45>
| 46>                          ****END OF INPUT****

CARTESIAN COORDINATES (ANGSTROEM)
---------------------------------
  C     -0.335789    0.787063   -0.000071
  C     -1.631045    0.254432    0.000024
  C     -1.806665   -1.131848    0.000105
  C     -0.677095   -1.957093    0.000082
  C      0.604852   -1.429868   -0.000009
  C      0.794037   -0.034049   -0.000078
  C      2.117768    0.599428   -0.000158
  C      3.313011   -0.010377    0.000170
  C      4.626723    0.696704    0.000066
  H      5.229868    0.420627   -0.885568
  H      5.229692    0.421217    0.886004
  H      4.499471    1.792391   -0.000314
  H      3.358307   -1.107651    0.000557
  H      2.101831    1.697733   -0.000502
  H      1.464803   -2.103721   -0.000059
  H     -0.815078   -3.042729    0.000124
  H     -2.802028   -1.579312    0.000174
  O     -2.638801    1.152365    0.000026
  C     -3.955837    0.685259    0.000174
  H     -4.603518    1.574865    0.000195
  H     -4.177259    0.080182    0.900834
  H     -4.177435    0.080099   -0.900388
  H     -0.232649    1.875647   -0.000133

 Total Charge           Charge          ....    0
 Multiplicity           Mult            ....    1
 Number of Electrons    NEL             ....   80
 Basis Dimension        Dim             ....  782

ORBITAL ENERGIES
----------------

  NO   OCC          E(Eh)            E(eV)
   0   2.0000     -19.152497      -521.1659
   1   2.0000     -10.221641      -278.1450
   2   2.0000     -10.197938      -277.5000
   3   2.0000     -10.174703      -276.8677
   4   2.0000     -10.162717      -276.5416
   5   2.0000     -10.161973      -276.5213
   6   2.0000     -10.156148      -276.3628
   7   2.0000     -10.156085      -276.3611
   8   2.0000     -10.155062      -276.3333
   9   2.0000     -10.152597      -276.2662
  10   2.0000     -10.147855      -276.1372
  11   2.0000      -1.081452       -29.4278
  12   2.0000      -0.860548       -23.4167
  13   2.0000      -0.799399       -21.7528
  14   2.0000      -0.756611       -20.5884
  15   2.0000      -0.748896       -20.3785
  16   2.0000      -0.687771       -18.7152
  17   2.0000      -0.675283       -18.3754
  18   2.0000      -0.600400       -16.3377
  19   2.0000      -0.593318       -16.1450
  20   2.0000      -0.542742       -14.7688
  21   2.0000      -0.513777       -13.9806
  22   2.0000      -0.478379       -13.0173
  23   2.0000      -0.472561       -12.8590
  24   2.0000      -0.458612       -12.4795
  25   2.0000      -0.449399       -12.2288
  26   2.0000      -0.421296       -11.4641
  27   2.0000      -0.407762       -11.0958
  28   2.0000      -0.398439       -10.8421
  29   2.0000      -0.386866       -10.5272
  30   2.0000      -0.376385       -10.2420
  31   2.0000      -0.372764       -10.1434
  32   2.0000      -0.355399        -9.6709
  33   2.0000      -0.340770        -9.2728
  34   2.0000      -0.330255        -8.9867
  35   2.0000      -0.323349        -8.7988
  36   2.0000      -0.311924        -8.4879
  37   2.0000      -0.285965        -7.7815
  38   2.0000      -0.227528        -6.1913
  39   2.0000      -0.213529        -5.8104
  40   0.0000      -0.048671        -1.3244
  41   0.0000      -0.019773        -0.5380
  42   0.0000       0.009986         0.2717
  43   0.0000       0.020510         0.5581
  44   0.0000       0.022989         0.6256

MULLIKEN ATOMIC CHARGES
-----------------------
   0 C :   -1.185878
   1 C :    0.905206
   2 C :   -0.011953
   3 C :   -0.937548
   4 C :   -0.562144
   5 C :    2.018893
   6 C :   -0.142825
   7 C :   -0.184307
   8 C :   -0.851761
   9 H :    0.173447
  10 H :    0.173354
  11 H :    0.259814
  12 H :    0.097917
  13 H :   -0.104776
  14 H :    0.102771
  15 H :    0.482334
  16 H :    0.213666
  17 O :   -0.622009
  18 C :   -0.664460
  19 H :    0.241649
  20 H :    0.258490
  21 H :    0.258201
  22 H :    0.081920
Sum of atomic charges:   -0.0000000

LOEWDIN ATOMIC CHARGES
----------------------
   0 C :    0.206518
   1 C :   -0.402087
   2 C :    0.198884
   3 C :    0.183894
   4 C :    0.194018
   5 C :   -0.163898
   6 C :    0.198862
   7 C :    0.199219
   8 C :    0.552817
   9 H :   -0.163642
  10 H :   -0.163665
  11 H :   -0.173672
  12 H :   -0.183519
  13 H :   -0.184042
  14 H :   -0.188002
  15 H :   -0.168248
  16 H :   -0.192043
  17 O :    0.589459
  18 C :    0.320158
  19 H :   -0.169449
  20 H :   -0.160749
  21 H :   -0.160727
  22 H :   -0.170087

  Mayer bond orders larger than 0.100000
B(  0-C ,  1-C ) :   0.5667 B(  0-C ,  4-C ) :  -0.2925 B(  0-C ,  5-C ) :  -0.1328
B(  0-C ,  6-C ) :  -0.1404 B(  0-C ,  7-C ) :   0.1925 B(  0-C , 17-O ) :   0.3258
B(  0-C , 22-H ) :   1.2998 B(  1-C ,  2-C ) :   1.0082 B(  1-C ,  4-C ) :  -0.2166
B(  1-C , 17-O ) :   0.1551 B(  1-C , 22-H ) :  -0.1286 B(  2-C ,  3-C ) :   0.8437
B(  2-C , 16-H ) :   1.0547 B(  2-C , 17-O ) :  -0.2691 B(  2-C , 18-C ) :  -0.1791
B(  3-C ,  4-C ) :   0.8956 B(  3-C ,  5-C ) :  -0.1201 B(  3-C ,  6-C ) :   0.1043
B(  3-C ,  7-C ) :  -0.1297 B(  3-C , 14-H ) :  -0.1574 B(  3-C , 15-H ) :   0.4820
B(  3-C , 16-H ) :  -0.1051 B(  4-C ,  5-C ) :   0.3183 B(  4-C , 14-H ) :   1.2341
B(  5-C ,  7-C ) :  -0.1683 B(  5-C , 12-H ) :  -0.1888 B(  5-C , 13-H ) :  -0.1186
B(  5-C , 14-H ) :  -0.1600 B(  5-C , 16-H ) :  -0.1031 B(  5-C , 17-O ) :   0.1418
B(  5-C , 22-H ) :  -0.1546 B(  6-C ,  7-C ) :   0.9341 B(  6-C , 13-H ) :   1.4045
B(  6-C , 22-H ) :  -0.1021 B(  7-C ,  8-C ) :   0.5176 B(  7-C , 12-H ) :   1.4617
B(  7-C , 13-H ) :  -0.1709 B(  8-C ,  9-H ) :   1.0655 B(  8-C , 10-H ) :   1.0663
B(  8-C , 11-H ) :   0.9342 B(  8-C , 12-H ) :  -0.1791 B( 16-H , 18-C ) :  -0.1514
B( 17-O , 18-C ) :   1.0389 B( 18-C , 19-H ) :   0.9591 B( 18-C , 20-H ) :   0.9324
B( 18-C , 21-H ) :   0.9334

Dispersion correction           -0.007245077
FINAL SINGLE POINT ENERGY      -463.382490773540

DIPOLE MOMENT
-------------

Method             : SCF
Type of density    : Electron Density
Multiplicity       :   1
Irrep              :   0
Energy             :  -463.3752456964101043 Eh
Relativity type    :
Basis              : AO
                                X                 Y                 Z
Electronic contribution:     -5.052002278      -0.425338854      -0.000525748
Nuclear contribution   :      4.758796555       0.116147158       0.000484674
                        -----------------------------------------
Total Dipole Moment    :     -0.293205723      -0.309191696      -0.000041075
                        -----------------------------------------
Magnitude (a.u.)       :      0.426109261
Magnitude (Debye)      :      1.083083668

Rotational constants in cm-1:             0.102459             0.016958             0.014631
Rotational constants in MHz :          3071.640827           508.382931           438.625504

                             ****ORCA TERMINATED NORMALLY****
TOTAL RUN TIME: 0 days 0 hours 8 minutes 37 seconds 708 msec
