                         Program Version 6.0.0  -   RELEASE  -
|  1> !PBE0 def2-SV(p) Opt Freq d3 TightSCF SlowConv RIJCOSX defgrid2
|  2>
|  3> %pal
|  4> nprocs 4
|  5> end
|  6>
|  7> %scf
|  8> MaxIter 1500
|  9> end
| 10>
| 11> %maxcore 3000
| 12>
| 13>
| 14>
| 15> * xyz 0 1
| 16> C     0.0184184    1.0797561   -0.0000297
| 17> C    -1.3444024    1.3328438   -0.0000331
| 18> C    -2.2580148    0.2954990   -0.0000200
| 19> C    -1.8010821   -1.0143107    0.0000024
| 20> C    -0.4474455   -1.2796074    0.0000133
| 21> C     0.4774110   -0.2329838    0.0000008
| 22> O     1.7907059   -0.6022526    0.0000087
| 23> C     2.7775324    0.4057059   -0.0000265
| 24> H     2.7083788    1.0334223   -0.8941434
| 25> H     2.7082306    1.0336356    0.8939289
| 26> H     3.7311106   -0.1196181    0.0001151
| 27> H    -0.0744850   -2.2921873    0.0000321
| 28> H    -2.5048580   -1.8334415    0.0000057
| 29> H    -3.3173126    0.5025712   -0.0000279
| 30> H    -1.6882802    2.3569105   -0.0000529
| 31> H     0.7077071    1.9091985   -0.0000476
| 32> *
| 33>
| 34>                          ****END OF INPUT****
 Total Charge           Charge          ....    0
 Multiplicity           Mult            ....    1
 Number of Electrons    NEL             ....   58
Dispersion correction           -0.012991769
FINAL SINGLE POINT ENERGY      -346.108710517563
Dispersion correction             ... done (  0.1 sec)
Dispersion correction           -0.012979943
FINAL SINGLE POINT ENERGY      -346.110380712108
Dispersion correction             ... done (  0.1 sec)
Dispersion correction           -0.012973004
FINAL SINGLE POINT ENERGY      -346.110445754072
Dispersion correction             ... done (  0.0 sec)
Dispersion correction           -0.012971280
FINAL SINGLE POINT ENERGY      -346.110461531760
Dispersion correction             ... done (  0.0 sec)
                    ***********************HURRAY********************

CARTESIAN COORDINATES (ANGSTROEM)
---------------------------------
  C      0.032609    1.081376   -0.000055
  C     -1.340676    1.339410   -0.000063
  C     -2.265058    0.299878   -0.000026
  C     -1.803557   -1.019957    0.000016
  C     -0.442129   -1.292065    0.000022
  C      0.487737   -0.242071   -0.000013
  O      1.788484   -0.600543   -0.000007
  C      2.764472    0.400086   -0.000008
  H      2.696190    1.040495   -0.900848
  H      2.696163    1.040521    0.900812
  H      3.737934   -0.113003    0.000014
  H     -0.063148   -2.317202    0.000054
  H     -2.516815   -1.849984    0.000042
  H     -3.337625    0.511933   -0.000031
  H     -1.684802    2.378281   -0.000097
  H      0.733836    1.917987   -0.000086

 Multiplicity           Mult            ....    1
 Number of Electrons    NEL             ....   58
 Basis Dimension        Dim             ....  128

ORBITAL ENERGIES
----------------

  NO   OCC          E(Eh)            E(eV)
   0   2.0000     -19.243223      -523.6347
   1   2.0000     -10.295046      -280.1425
   2   2.0000     -10.283365      -279.8246
   3   2.0000     -10.236540      -278.5504
   4   2.0000     -10.235268      -278.5158
   5   2.0000     -10.232722      -278.4465
   6   2.0000     -10.228216      -278.3239
   7   2.0000     -10.227416      -278.3021
   8   2.0000      -1.095074       -29.7985
   9   2.0000      -0.869993       -23.6737
  10   2.0000      -0.775621       -21.1057
  11   2.0000      -0.760833       -20.7033
  12   2.0000      -0.709572       -19.3084
  13   2.0000      -0.623943       -16.9783
  14   2.0000      -0.603720       -16.4280
  15   2.0000      -0.556105       -15.1324
  16   2.0000      -0.501552       -13.6479
  17   2.0000      -0.496536       -13.5114
  18   2.0000      -0.490034       -13.3345
  19   2.0000      -0.457704       -12.4548
  20   2.0000      -0.436969       -11.8905
  21   2.0000      -0.427880       -11.6432
  22   2.0000      -0.394110       -10.7243
  23   2.0000      -0.378625       -10.3029
  24   2.0000      -0.370810       -10.0903
  25   2.0000      -0.337990        -9.1972
  26   2.0000      -0.336769        -9.1640
  27   2.0000      -0.265963        -7.2372
  28   2.0000      -0.233368        -6.3503
  29   0.0000      -0.001706        -0.0464
  30   0.0000       0.013317         0.3624
  31   0.0000       0.070502         1.9184
  32   0.0000       0.085605         2.3294
  33   0.0000       0.114438         3.1140

MULLIKEN ATOMIC CHARGES
-----------------------
   0 C :   -0.225125
   1 C :   -0.090402
   2 C :   -0.096076
   3 C :   -0.096231
   4 C :   -0.143728
   5 C :    0.265524
   6 O :   -0.327315
   7 C :   -0.160557
   8 H :    0.129703
   9 H :    0.129703
  10 H :    0.148086
  11 H :    0.092389
  12 H :    0.098203
  13 H :    0.092555
  14 H :    0.095340
  15 H :    0.087933
Sum of atomic charges:   -0.0000000

LOEWDIN ATOMIC CHARGES
----------------------
   0 C :   -0.184867
   1 C :   -0.117271
   2 C :   -0.154849
   3 C :   -0.118267
   4 C :   -0.150056
   5 C :    0.040884
   6 O :   -0.111057
   7 C :   -0.202648
   8 H :    0.110315
   9 H :    0.110315
  10 H :    0.124659
  11 H :    0.135806
  12 H :    0.129589
  13 H :    0.127732
  14 H :    0.128551
  15 H :    0.131164

  Mayer bond orders larger than 0.100000
B(  0-C ,  1-C ) :   1.3715 B(  0-C ,  5-C ) :   1.3295 B(  0-C , 15-H ) :   0.9593
B(  1-C ,  2-C ) :   1.4170 B(  1-C , 14-H ) :   0.9602 B(  2-C ,  3-C ) :   1.3648
B(  2-C , 13-H ) :   0.9662 B(  3-C ,  4-C ) :   1.4151 B(  3-C , 12-H ) :   0.9626
B(  4-C ,  5-C ) :   1.3656 B(  4-C , 11-H ) :   0.9617 B(  5-C ,  6-O ) :   1.1060
B(  6-O ,  7-C ) :   0.9644 B(  7-C ,  8-H ) :   0.9410 B(  7-C ,  9-H ) :   0.9410
B(  7-C , 10-H ) :   0.9568

Dispersion correction           -0.012971304
FINAL SINGLE POINT ENERGY      -346.110462579830

DIPOLE MOMENT
-------------

Method             : SCF
Type of density    : Electron Density
Multiplicity       :   1
Irrep              :   0
Energy             :  -346.0974912762988538 Eh
Relativity type    :
Basis              : AO
                                X                 Y                 Z
Electronic contribution:     -1.811477312      -2.034676875       0.000006473
Nuclear contribution   :      2.143742692       2.450814428      -0.000006666
                        -----------------------------------------
Total Dipole Moment    :      0.332265381       0.416137553      -0.000000193
                        -----------------------------------------
Magnitude (a.u.)       :      0.532513611
Magnitude (Debye)      :      1.353542031

VIBRATIONAL FREQUENCIES
-----------------------

Scaling factor for frequencies =  1.000000000  (already applied!)

     0:       0.00 cm**-1
     1:       0.00 cm**-1
     2:       0.00 cm**-1
     3:       0.00 cm**-1
     4:       0.00 cm**-1
     5:       0.00 cm**-1
     6:      97.58 cm**-1
     7:     218.93 cm**-1
     8:     263.30 cm**-1
     9:     287.91 cm**-1
    10:     429.84 cm**-1
    11:     452.81 cm**-1
    12:     529.03 cm**-1
    13:     563.80 cm**-1
    14:     626.50 cm**-1
    15:     715.76 cm**-1
    16:     780.53 cm**-1
    17:     816.59 cm**-1
    18:     837.58 cm**-1
    19:     912.93 cm**-1
    20:     985.04 cm**-1
    21:    1010.01 cm**-1
    22:    1012.81 cm**-1
    23:    1059.41 cm**-1
    24:    1108.17 cm**-1
    25:    1127.95 cm**-1
    26:    1168.65 cm**-1
    27:    1184.99 cm**-1
    28:    1190.25 cm**-1
    29:    1217.45 cm**-1
    30:    1337.79 cm**-1
    31:    1339.92 cm**-1
    32:    1412.52 cm**-1
    33:    1478.50 cm**-1
    34:    1481.18 cm**-1
    35:    1495.92 cm**-1
    36:    1509.50 cm**-1
    37:    1560.18 cm**-1
    38:    1674.71 cm**-1
    39:    1701.18 cm**-1
    40:    3008.29 cm**-1
    41:    3086.33 cm**-1
    42:    3162.11 cm**-1
    43:    3194.80 cm**-1
    44:    3202.72 cm**-1
    45:    3218.56 cm**-1
    46:    3225.63 cm**-1
    47:    3232.29 cm**-1

IR SPECTRUM
-----------

 Mode   freq       eps      Int      T**2         TX        TY        TZ
       cm**-1   L/(mol*cm) km/mol    a.u.
----------------------------------------------------------------------------
  6:     97.58   0.000827    4.18  0.002646  ( 0.000001 -0.000001 -0.051435)
  7:    218.93   0.000050    0.25  0.000072  ( 0.000001  0.000000 -0.008477)
  8:    263.30   0.000496    2.51  0.000588  ( 0.020433 -0.013055 -0.000000)
  9:    287.91   0.000095    0.48  0.000103  (-0.000001  0.000000  0.010128)
 10:    429.84   0.000000    0.00  0.000000  (-0.000001 -0.000000 -0.000155)
 11:    452.81   0.000181    0.92  0.000125  (-0.007626 -0.008174 -0.000000)
 12:    529.03   0.001497    7.57  0.000883  ( 0.000000  0.000001 -0.029718)
 13:    563.80   0.001007    5.09  0.000557  (-0.020393  0.011898 -0.000002)
 14:    626.50   0.000082    0.41  0.000041  (-0.004137 -0.004859  0.000000)
 15:    715.76   0.005682   28.71  0.002477  ( 0.000000  0.000001  0.049773)
 16:    780.53   0.009506   48.04  0.003801  ( 0.000001 -0.000002 -0.061649)
 17:    816.59   0.002843   14.37  0.001087  (-0.029849  0.013987 -0.000000)
 18:    837.58   0.000003    0.01  0.000001  ( 0.000000  0.000000  0.001013)
 19:    912.93   0.001743    8.81  0.000596  (-0.000000  0.000001  0.024406)
 20:    985.04   0.000003    0.02  0.000001  ( 0.000000 -0.000000  0.000983)
 21:   1010.01   0.000059    0.30  0.000018  (-0.000000 -0.000000 -0.004262)
 22:   1012.81   0.000035    0.18  0.000011  ( 0.001544 -0.002924  0.000000)
 23:   1059.41   0.000460    2.33  0.000136  (-0.010858  0.004206 -0.000000)
 24:   1108.17   0.001259    6.36  0.000354  ( 0.006976 -0.017486  0.000001)
 25:   1127.95   0.009435   47.68  0.002610  (-0.034646 -0.037548  0.000000)
 26:   1168.65   0.000322    1.63  0.000086  ( 0.009216 -0.001072  0.000000)
 27:   1184.99   0.000106    0.54  0.000028  ( 0.000000 -0.000000 -0.005294)
 28:   1190.25   0.002204   11.14  0.000578  ( 0.023583  0.004642  0.000000)
 29:   1217.45   0.000554    2.80  0.000142  ( 0.006555  0.009946 -0.000000)
 30:   1337.79   0.013876   70.13  0.003237  (-0.056490 -0.006769 -0.000000)
 31:   1339.92   0.030417  153.71  0.007084  (-0.084117 -0.002868 -0.000000)
 32:   1412.52   0.005610   28.35  0.001239  (-0.032239 -0.014146  0.000000)
 33:   1478.50   0.001058    5.35  0.000223  ( 0.014210 -0.004626  0.000005)
 34:   1481.18   0.001754    8.86  0.000369  ( 0.000001  0.000001  0.019222)
 35:   1495.92   0.008555   43.23  0.001785  ( 0.042123 -0.003205 -0.000002)
 36:   1509.50   0.001172    5.92  0.000242  (-0.015239 -0.003172  0.000000)
 37:   1560.18   0.026119  132.00  0.005224  ( 0.072192 -0.003553  0.000000)
 38:   1674.71   0.003655   18.47  0.000681  (-0.017566  0.019300 -0.000001)
 39:   1701.18   0.018438   93.18  0.003382  (-0.058151 -0.000869 -0.000000)
 40:   3008.29   0.010739   54.27  0.001114  (-0.027374 -0.019096  0.000000)
 41:   3086.33   0.006694   33.83  0.000677  (-0.000000  0.000000  0.026017)
 42:   3162.11   0.003282   16.58  0.000324  (-0.016507  0.007168 -0.000000)
 43:   3194.80   0.000340    1.72  0.000033  ( 0.005596 -0.001363  0.000000)
 44:   3202.72   0.001658    8.38  0.000162  ( 0.002030  0.012548 -0.000000)
 45:   3218.56   0.002908   14.69  0.000282  ( 0.015637 -0.006116  0.000000)
 46:   3225.63   0.001182    5.97  0.000114  (-0.007790 -0.007325  0.000000)
 47:   3232.29   0.000665    3.36  0.000064  ( 0.004346  0.006735 -0.000000)

--------------------------
THERMOCHEMISTRY AT 298.15K
--------------------------

Temperature         ...   298.15 K
Pressure            ...     1.00 atm
Total Mass          ...   108.14 AMU
Quasi RRHO          ...     True
Cut-Off Frequency   ...     1.00 cm^-1

Throughout the following assumptions are being made:
  (1) The electronic state is orbitally nondegenerate
  (2) There are no thermally accessible electronically excited states
  (3) Hindered rotations indicated by low frequency modes are not
      treated as such but are treated as vibrations and this may
      cause some error
  (4) All equations used are the standard statistical mechanics
      equations for an ideal gas
  (5) All vibrations are strictly harmonic

freq.      97.58  E(vib)   ...       0.46
freq.     218.93  E(vib)   ...       0.33
freq.     263.30  E(vib)   ...       0.29
freq.     287.91  E(vib)   ...       0.27
freq.     429.84  E(vib)   ...       0.18
freq.     452.81  E(vib)   ...       0.16
freq.     529.03  E(vib)   ...       0.13
freq.     563.80  E(vib)   ...       0.11
freq.     626.50  E(vib)   ...       0.09
freq.     715.76  E(vib)   ...       0.07
freq.     780.53  E(vib)   ...       0.05
freq.     816.59  E(vib)   ...       0.05
freq.     837.58  E(vib)   ...       0.04
freq.     912.93  E(vib)   ...       0.03
freq.     985.04  E(vib)   ...       0.02
freq.    1010.01  E(vib)   ...       0.02
freq.    1012.81  E(vib)   ...       0.02
freq.    1059.41  E(vib)   ...       0.02
freq.    1108.17  E(vib)   ...       0.02
freq.    1127.95  E(vib)   ...       0.01
freq.    1168.65  E(vib)   ...       0.01
freq.    1184.99  E(vib)   ...       0.01
freq.    1190.25  E(vib)   ...       0.01
freq.    1217.45  E(vib)   ...       0.01
freq.    1337.79  E(vib)   ...       0.01
freq.    1339.92  E(vib)   ...       0.01
freq.    1412.52  E(vib)   ...       0.00
freq.    1478.50  E(vib)   ...       0.00
freq.    1481.18  E(vib)   ...       0.00
freq.    1495.92  E(vib)   ...       0.00
freq.    1509.50  E(vib)   ...       0.00
freq.    1560.18  E(vib)   ...       0.00
freq.    1674.71  E(vib)   ...       0.00
freq.    1701.18  E(vib)   ...       0.00
freq.    3008.29  E(vib)   ...       0.00
freq.    3086.33  E(vib)   ...       0.00
freq.    3162.11  E(vib)   ...       0.00
freq.    3194.80  E(vib)   ...       0.00
freq.    3202.72  E(vib)   ...       0.00
freq.    3218.56  E(vib)   ...       0.00
freq.    3225.63  E(vib)   ...       0.00
freq.    3232.29  E(vib)   ...       0.00

------------
INNER ENERGY
------------

The inner energy is: U= E(el) + E(ZPE) + E(vib) + E(rot) + E(trans)
    E(el)   - is the total energy from the electronic structure calculation
              = E(kin-el) + E(nuc-el) + E(el-el) + E(nuc-nuc)
    E(ZPE)  - the the zero temperature vibrational energy from the frequency calculation
    E(vib)  - the the finite temperature correction to E(ZPE) due to population
              of excited vibrational states
    E(rot)  - is the rotational thermal energy
    E(trans)- is the translational thermal energy

Summary of contributions to the inner energy U:
Electronic energy                ...   -346.11046258 Eh
Zero point energy                ...      0.13422953 Eh      84.23 kcal/mol
Thermal vibrational correction   ...      0.00394213 Eh       2.47 kcal/mol
Thermal rotational correction    ...      0.00141627 Eh       0.89 kcal/mol
Thermal translational correction ...      0.00141627 Eh       0.89 kcal/mol
-----------------------------------------------------------------------
Total thermal energy                   -345.96945837 Eh

Summary of corrections to the electronic energy:
(perhaps to be used in another calculation)
Total thermal correction                  0.00677468 Eh       4.25 kcal/mol
Non-thermal (ZPE) correction              0.13422953 Eh      84.23 kcal/mol
-----------------------------------------------------------------------
Total correction                          0.14100421 Eh      88.48 kcal/mol

--------
ENTHALPY
--------

The enthalpy is H = U + kB*T
                kB is Boltzmann's constant
Total thermal energy              ...   -345.96945837 Eh
Thermal Enthalpy correction       ...      0.00094421 Eh       0.59 kcal/mol
-----------------------------------------------------------------------
Total Enthalpy                    ...   -345.96851416 Eh

Note: Rotational entropy computed according to Herzberg
Infrared and Raman Spectra, Chapter V,1, Van Nostrand Reinhold, 1945
Point Group:  Cs, Symmetry Number:   1
Rotational constants in cm-1:     0.168604     0.052375     0.040274

Vibrational entropy computed according to the QRRHO of S. Grimme
Chem.Eur.J. 2012 18 9955 using a reference frequency of 100.0 cm-1

-------
ENTROPY
-------

The entropy contributions are T*S = T*(S(el)+S(vib)+S(rot)+S(trans))
     S(el)   - electronic entropy
     S(vib)  - vibrational entropy
     S(rot)  - rotational entropy
     S(trans)- translational entropy
The entropies will be listed as multiplied by the temperature to get
units of energy

Electronic entropy                ...      0.00000000 Eh      0.00 kcal/mol
Vibrational entropy               ...      0.00628959 Eh      3.95 kcal/mol
Rotational entropy                ...      0.01325995 Eh      8.32 kcal/mol
Translational entropy             ...      0.01898207 Eh     11.91 kcal/mol
-----------------------------------------------------------------------
Final entropy term                ...      0.03853162 Eh     24.18 kcal/mol

In case the symmetry of your molecule has not been determined correctly
or in case you have a reason to use a different symmetry number we print
out the resulting rotational entropy values for sn=1,12:

 non-linear molecules -----------------------------------
|  sn= 1 | S(rot)=       0.01325995 Eh      8.32 kcal/mol|
|  sn= 2 | S(rot)=       0.01260550 Eh      7.91 kcal/mol|
|  sn= 3 | S(rot)=       0.01222266 Eh      7.67 kcal/mol|
|  sn= 4 | S(rot)=       0.01195104 Eh      7.50 kcal/mol|
|  sn= 5 | S(rot)=       0.01174035 Eh      7.37 kcal/mol|
|  sn= 6 | S(rot)=       0.01156821 Eh      7.26 kcal/mol|
|  sn= 7 | S(rot)=       0.01142266 Eh      7.17 kcal/mol|
|  sn= 8 | S(rot)=       0.01129658 Eh      7.09 kcal/mol|
|  sn= 9 | S(rot)=       0.01118537 Eh      7.02 kcal/mol|
|  sn=10 | S(rot)=       0.01108590 Eh      6.96 kcal/mol|
|  sn=11 | S(rot)=       0.01099591 Eh      6.90 kcal/mol|
|  sn=12 | S(rot)=       0.01091375 Eh      6.85 kcal/mol|
 linear molecules ---------------------------------------
|  Dinfh | S(rot)=       0.00835856 Eh      5.25 kcal/mol|
|  Cinfv | S(rot)=       0.00901302 Eh      5.66 kcal/mol|
 --------------------------------------------------------

-------------------
GIBBS FREE ENERGY
-------------------

The Gibbs free energy is G = H - T*S

                             ****ORCA TERMINATED NORMALLY****
TOTAL RUN TIME: 0 days 0 hours 6 minutes 2 seconds 966 msec
