                         Program Version 6.0.0  -   RELEASE  -
|  1> !B3LYP aug-cc-pVTZ d3 TightSCF SlowConv RIJCOSX defgrid2
|  2>
|  3> %pal
|  4> nprocs 15
|  5> end
|  6>
|  7> %scf
|  8> MaxIter 1500
|  9> end
| 10>
| 11> %maxcore 3500
| 12>
| 13> !CPCM
| 14> %cpcm smd true
| 15> SMDsolvent "WATER"
| 16> surfacetype gepol_ses
| 17> rsolv 1.40
| 18> end
| 19>
| 20> * xyz -1 2
| 21> C           0.05676834437269     -0.04126375525375     -0.07379470178985
| 22> C           0.04676127079215      1.38639972567344      0.09948592866889
| 23> C           0.00732325322699      2.02650392411858      1.32436257991460
| 24> C          -0.02811199415728      1.28756028332669      2.56763955505213
| 25> C          -0.01950367462772     -0.17671526637425      2.44249972135594
| 26> C           0.02128903830978     -0.81737610319329      1.17794298580176
| 27> C           0.02766320595178     -2.22274936131322      1.12035686382715
| 28> C          -0.00525760141292     -2.98509780735118      2.27563842056320
| 29> C          -0.04596579054487     -2.34934581671190      3.53299210043314
| 30> C          -0.05269695553496     -0.96718770864542      3.60727949422398
| 31> H           0.07307998987984      1.97354439848574     -0.82691927210829
| 32> H          -0.08387968905241     -0.43627556568955      4.56348338899376
| 33> H          -0.07227523191341     -2.95060132238905      4.44937134345183
| 34> H           0.00009741014830     -4.07969694965667      2.21544872655867
| 35> H           0.05965826160228     -2.67423134322413      0.12415494788135
| 36> C          -0.00135605546558      3.52012474646347      1.44205228332186
| 37> H          -0.89947922034870      3.86767983350127      1.98595203666262
| 38> H           0.86028970160146      3.87394551637077      2.03844092282286
| 39> H           0.02673872207916      4.00491399489856      0.45047397160307
| 40> O          -0.06383664808370      1.85761287334880      3.68239612384268
| 41> O           0.09269366317713     -0.59678036638491     -1.19351016008137
| 42> *
| 43>
| 44>                          ****END OF INPUT****

CARTESIAN COORDINATES (ANGSTROEM)
---------------------------------
  C      0.056768   -0.041264   -0.073795
  C      0.046761    1.386400    0.099486
  C      0.007323    2.026504    1.324363
  C     -0.028112    1.287560    2.567640
  C     -0.019504   -0.176715    2.442500
  C      0.021289   -0.817376    1.177943
  C      0.027663   -2.222749    1.120357
  C     -0.005258   -2.985098    2.275638
  C     -0.045966   -2.349346    3.532992
  C     -0.052697   -0.967188    3.607279
  H      0.073080    1.973544   -0.826919
  H     -0.083880   -0.436276    4.563483
  H     -0.072275   -2.950601    4.449371
  H      0.000097   -4.079697    2.215449
  H      0.059658   -2.674231    0.124155
  C     -0.001356    3.520125    1.442052
  H     -0.899479    3.867680    1.985952
  H      0.860290    3.873946    2.038441
  H      0.026739    4.004914    0.450474
  O     -0.063837    1.857613    3.682396
  O      0.092694   -0.596780   -1.193510

 Total Charge           Charge          ....   -1
 Multiplicity           Mult            ....    2
 Number of Electrons    NEL             ....   91
 Basis Dimension        Dim             ....  782

ORBITAL ENERGIES
----------------
                 SPIN UP ORBITALS
  NO   OCC          E(Eh)            E(eV)
   0   1.0000     -19.087661      -519.4017
   1   1.0000     -19.087196      -519.3890
   2   1.0000     -10.225827      -278.2589
   3   1.0000     -10.222943      -278.1804
   4   1.0000     -10.174560      -276.8639
   5   1.0000     -10.173801      -276.8432
   6   1.0000     -10.173622      -276.8383
   7   1.0000     -10.173240      -276.8279
   8   1.0000     -10.172954      -276.8202
   9   1.0000     -10.170729      -276.7596
  10   1.0000     -10.170511      -276.7537
  11   1.0000     -10.160498      -276.4812
  12   1.0000     -10.157483      -276.3992
  13   1.0000      -1.010228       -27.4897
  14   1.0000      -1.007911       -27.4266
  15   1.0000      -0.855384       -23.2762
  16   1.0000      -0.808351       -21.9963
  17   1.0000      -0.750219       -20.4145
  18   1.0000      -0.746910       -20.3244
  19   1.0000      -0.697119       -18.9696
  20   1.0000      -0.657020       -17.8784
  21   1.0000      -0.611065       -16.6279
  22   1.0000      -0.589374       -16.0377
  23   1.0000      -0.553084       -15.0502
  24   1.0000      -0.506712       -13.7883
  25   1.0000      -0.492974       -13.4145
  26   1.0000      -0.466182       -12.6855
  27   1.0000      -0.444292       -12.0898
  28   1.0000      -0.429152       -11.6778
  29   1.0000      -0.424810       -11.5597
  30   1.0000      -0.419568       -11.4170
  31   1.0000      -0.418059       -11.3760
  32   1.0000      -0.397056       -10.8045
  33   1.0000      -0.388359       -10.5678
  34   1.0000      -0.378770       -10.3069
  35   1.0000      -0.377450       -10.2709
  36   1.0000      -0.367106        -9.9895
  37   1.0000      -0.349917        -9.5217
  38   1.0000      -0.344417        -9.3721
  39   1.0000      -0.334189        -9.0937
  40   1.0000      -0.276219        -7.5163
  41   1.0000      -0.256391        -6.9767
  42   1.0000      -0.253190        -6.8896
  43   1.0000      -0.245472        -6.6796
  44   1.0000      -0.242266        -6.5924
  45   1.0000      -0.154888        -4.2147
  46   0.0000      -0.032991        -0.8977
  47   0.0000      -0.013891        -0.3780
  48   0.0000      -0.001323        -0.0360
  49   0.0000       0.008652         0.2354
  50   0.0000       0.015002         0.4082

                 SPIN DOWN ORBITALS
  NO   OCC          E(Eh)            E(eV)
   0   1.0000     -19.082178      -519.2525
   1   1.0000     -19.081490      -519.2338
   2   1.0000     -10.223993      -278.2090
   3   1.0000     -10.220815      -278.1225
   4   1.0000     -10.173497      -276.8349
   5   1.0000     -10.173240      -276.8279
   6   1.0000     -10.172867      -276.8178
   7   1.0000     -10.172789      -276.8156
   8   1.0000     -10.172460      -276.8067
   9   1.0000     -10.170670      -276.7580
  10   1.0000     -10.170329      -276.7487
  11   1.0000     -10.159313      -276.4490
  12   1.0000     -10.157605      -276.4025
  13   1.0000      -1.000341       -27.2207
  14   1.0000      -0.997637       -27.1471
  15   1.0000      -0.853307       -23.2197
  16   1.0000      -0.803359       -21.8605
  17   1.0000      -0.748121       -20.3574
  18   1.0000      -0.745033       -20.2734
  19   1.0000      -0.692665       -18.8484
  20   1.0000      -0.650271       -17.6948
  21   1.0000      -0.608945       -16.5702
  22   1.0000      -0.586700       -15.9649
  23   1.0000      -0.550175       -14.9710
  24   1.0000      -0.504419       -13.7259
  25   1.0000      -0.490023       -13.3342
  26   1.0000      -0.463314       -12.6074
  27   1.0000      -0.443211       -12.0604
  28   1.0000      -0.420738       -11.4489
  29   1.0000      -0.417075       -11.3492
  30   1.0000      -0.416637       -11.3373
  31   1.0000      -0.416378       -11.3302
  32   1.0000      -0.387391       -10.5415
  33   1.0000      -0.386341       -10.5129
  34   1.0000      -0.377236       -10.2651
  35   1.0000      -0.365979        -9.9588
  36   1.0000      -0.357164        -9.7189
  37   1.0000      -0.342822        -9.3287
  38   1.0000      -0.338595        -9.2136
  39   1.0000      -0.333177        -9.0662
  40   1.0000      -0.252399        -6.8681
  41   1.0000      -0.249867        -6.7992
  42   1.0000      -0.248150        -6.7525
  43   1.0000      -0.238845        -6.4993
  44   1.0000      -0.237291        -6.4570
  45   0.0000      -0.088470        -2.4074
  46   0.0000      -0.024866        -0.6766
  47   0.0000      -0.002582        -0.0703
  48   0.0000      -0.001148        -0.0312
  49   0.0000       0.008628         0.2348

MULLIKEN ATOMIC CHARGES AND SPIN POPULATIONS
--------------------------------------------
   0 C :    1.115353    0.112063
   1 C :   -0.688353    0.111447
   2 C :    0.398779    0.099794
   3 C :    0.726415    0.132568
   4 C :    1.469489    0.015455
   5 C :    1.100980    0.044504
   6 C :   -1.220251    0.010174
   7 C :   -0.450746    0.030750
   8 C :   -0.414118    0.020727
   9 C :   -1.462930    0.021720
  10 H :    0.134677   -0.003953
  11 H :   -0.006067   -0.004090
  12 H :    0.616293   -0.000823
  13 H :    0.550821   -0.001302
  14 H :   -0.036086   -0.003534
  15 C :   -0.820942   -0.013086
  16 H :    0.209733    0.007442
  17 H :    0.206416    0.007422
  18 H :    0.189861   -0.001033
  19 O :   -1.305609    0.213915
  20 O :   -1.313716    0.199840
Sum of atomic charges         :   -1.0000000

LOEWDIN ATOMIC CHARGES AND SPIN POPULATIONS
-------------------------------------------
   0 C :   -0.653294    0.119855
   1 C :    0.178378    0.086056
   2 C :   -0.164931    0.100139
   3 C :   -0.621403    0.132835
   4 C :   -0.146696    0.044184
   5 C :   -0.152020    0.044226
   6 C :    0.179123    0.012675
   7 C :    0.186802    0.019624
   8 C :    0.186679    0.016903
   9 C :    0.180972    0.014555
  10 H :   -0.188691    0.009437
  11 H :   -0.194499    0.001565
  12 H :   -0.171271    0.002614
  13 H :   -0.171655    0.003707
  14 H :   -0.194224    0.000640
  15 C :    0.526166    0.013629
  16 H :   -0.164846    0.003497
  17 H :   -0.164796    0.003499
  18 H :   -0.168051   -0.000239
  19 O :    0.376219    0.190616
  20 O :    0.342036    0.179984

  Mayer bond orders larger than 0.100000
B(  0-C ,  1-C ) :   0.7675 B(  0-C ,  3-C ) :   0.1187 B(  0-C ,  5-C ) :   0.2584
B(  0-C ,  6-C ) :   0.6118 B(  0-C ,  8-C ) :   0.1248 B(  0-C ,  9-C ) :  -0.1537
B(  0-C , 10-H ) :  -0.2684 B(  0-C , 20-O ) :  -0.3690 B(  1-C ,  2-C ) :   1.0688
B(  1-C ,  3-C ) :  -0.2645 B(  1-C ,  4-C ) :  -0.1096 B(  1-C ,  5-C ) :   0.3253
B(  1-C ,  6-C ) :   0.1175 B(  1-C , 10-H ) :   0.9025 B(  1-C , 15-C ) :  -0.1627
B(  1-C , 20-O ) :   0.2752 B(  2-C ,  3-C ) :   0.6808 B(  2-C ,  4-C ) :   0.5910
B(  2-C ,  5-C ) :  -0.1370 B(  2-C , 15-C ) :   0.3941 B(  2-C , 16-H ) :  -0.1213
B(  2-C , 17-H ) :  -0.1211 B(  2-C , 19-O ) :   0.1968 B(  2-C , 20-O ) :   0.1256
B(  3-C ,  4-C ) :   0.3825 B(  3-C ,  6-C ) :  -0.1820 B(  3-C ,  9-C ) :   0.6954
B(  3-C , 10-H ) :   0.1031 B(  3-C , 15-C ) :   0.2563 B(  4-C ,  5-C ) :   0.9235
B(  4-C ,  6-C ) :  -0.6325 B(  4-C ,  7-C ) :  -0.2267 B(  4-C ,  9-C ) :  -0.5172
B(  4-C , 11-H ) :  -0.1876 B(  4-C , 19-O ) :   0.1349 B(  5-C ,  8-C ) :  -0.1226
B(  5-C ,  9-C ) :  -0.2638 B(  5-C , 10-H ) :   0.1368 B(  5-C , 14-H ) :  -0.1664
B(  5-C , 20-O ) :   0.2199 B(  6-C ,  7-C ) :   1.1628 B(  6-C ,  9-C ) :   0.1395
B(  6-C , 13-H ) :  -0.1896 B(  6-C , 14-H ) :   1.3714 B(  7-C ,  8-C ) :   1.1008
B(  7-C , 13-H ) :   0.4647 B(  8-C ,  9-C ) :   1.2079 B(  8-C , 12-H ) :   0.3649
B(  9-C , 11-H ) :   1.2813 B(  9-C , 12-H ) :  -0.1950 B( 10-H , 14-H ) :   0.1152
B( 10-H , 20-O ) :   0.1527 B( 11-H , 19-O ) :   0.2813 B( 14-H , 20-O ) :   0.2690
B( 15-C , 16-H ) :   0.9956 B( 15-C , 17-H ) :   0.9991 B( 15-C , 18-H ) :   1.0146

Dispersion correction           -0.044613647
FINAL SINGLE POINT ENERGY      -574.503957351789

DIPOLE MOMENT
-------------

Method             : SCF
Type of density    : Electron Density
Multiplicity       :   2
Irrep              :   0
Energy             :  -574.4593437050027660 Eh
Relativity type    :
Basis              : AO
                                X                 Y                 Z
Electronic contribution:      0.028178068      -3.925634928      -0.482979674
Nuclear contribution   :     -0.055391570       3.039875839       1.447342045
                        -----------------------------------------
Total Dipole Moment    :     -0.027213502      -0.885759089       0.964362371
                        -----------------------------------------
Magnitude (a.u.)       :      1.309696347
Magnitude (Debye)      :      3.328983555

Rotational constants in cm-1:             0.041924             0.026162             0.016157
Rotational constants in MHz :          1256.843177           784.307239           484.385236

                             ****ORCA TERMINATED NORMALLY****
TOTAL RUN TIME: 0 days 0 hours 5 minutes 34 seconds 824 msec
