                         Program Version 6.0.0  -   RELEASE  -
|  1> !PBE0 def2-SV(p) Opt Freq d3 TightSCF SlowConv RIJCOSX defgrid2
|  2>
|  3> %pal
|  4> nprocs 4
|  5> end
|  6>
|  7> %scf
|  8> MaxIter 1500
|  9> end
| 10>
| 11> %maxcore 3000
| 12>
| 13>
| 14>
| 15> * xyz 0 1
| 16> C     1.3616506   -0.7157314    0.7044963
| 17> C     2.6109979   -1.3083878    0.7439184
| 18> C     3.6943517   -0.7090270    0.1238809
| 19> C     3.5263860    0.4987781   -0.5336473
| 20> C     2.2821652    1.0985253   -0.5842157
| 21> C     1.1918110    0.4885438    0.0293621
| 22> O    -0.0000161    1.1693127    0.0001228
| 23> C    -1.1918189    0.4885184   -0.0292533
| 24> C    -2.2822865    1.0985594    0.5840692
| 25> C    -3.5264920    0.4987956    0.5333575
| 26> C    -3.6943361   -0.7090879   -0.1240594
| 27> C    -2.6108699   -1.3085084   -0.7438413
| 28> C    -1.3615351   -0.7158355   -0.7042762
| 29> H    -0.5199789   -1.1778470   -1.1998364
| 30> H    -2.7357160   -2.2439536   -1.2686136
| 31> H    -4.6655461   -1.1784812   -0.1578856
| 32> H    -4.3673847    0.9765298    1.0132958
| 33> H    -2.1346392    2.0402821    1.0897358
| 34> H     2.1344207    2.0401867   -1.0899678
| 35> H     4.3671906    0.9764603   -1.0137911
| 36> H     4.6655703   -1.1784115    0.1575889
| 37> H     2.7359455   -2.2437733    1.2687724
| 38> H     0.5201783   -1.1776918    1.2002473
| 39> *
| 40>
| 41>                          ****END OF INPUT****
 Total Charge           Charge          ....    0
 Multiplicity           Mult            ....    1
 Number of Electrons    NEL             ....   90
Dispersion correction           -0.023658354
FINAL SINGLE POINT ENERGY      -537.497665152333
Dispersion correction             ... done (  0.0 sec)
Dispersion correction           -0.023492154
FINAL SINGLE POINT ENERGY      -537.500205980815
Dispersion correction             ... done (  0.1 sec)
Dispersion correction           -0.023580238
FINAL SINGLE POINT ENERGY      -537.500299247557
Dispersion correction             ... done (  0.1 sec)
FINAL SINGLE POINT ENERGY      -537.500333266260
Dispersion correction             ... done (  0.0 sec)
Dispersion correction           -0.023562332
FINAL SINGLE POINT ENERGY      -537.500337908142
Dispersion correction             ... done (  0.1 sec)
Dispersion correction           -0.023568500
FINAL SINGLE POINT ENERGY      -537.500339249935
Dispersion correction             ... done (  0.1 sec)
                    ***********************HURRAY********************

CARTESIAN COORDINATES (ANGSTROEM)
---------------------------------
  C      1.360949   -0.668318    0.791665
  C      2.616685   -1.269936    0.837625
  C      3.697515   -0.714989    0.152201
  C      3.514115    0.455219   -0.584527
  C      2.262006    1.062082   -0.645101
  C      1.186812    0.498370    0.042635
  O     -0.000015    1.169791    0.000055
  C     -1.186820    0.498341   -0.042605
  C     -2.262101    1.062112    0.644950
  C     -3.514194    0.455229    0.584303
  C     -3.697499   -0.715062   -0.152318
  C     -2.616586   -1.270069   -0.837558
  C     -1.360859   -0.668434   -0.791525
  H     -0.515584   -1.097159   -1.335855
  H     -2.750620   -2.182818   -1.425963
  H     -4.680445   -1.192179   -0.194707
  H     -4.354723    0.901188    1.124480
  H     -2.095573    1.977524    1.217899
  H      2.095402    1.977427   -1.218133
  H      4.354580    0.901130   -1.124845
  H      4.680471   -1.192089    0.194531
  H      2.750798   -2.182617    1.426116
  H      0.515736   -1.096986    1.336137

 Multiplicity           Mult            ....    1
 Number of Electrons    NEL             ....   90
 Basis Dimension        Dim             ....  202

ORBITAL ENERGIES
----------------

  NO   OCC          E(Eh)            E(eV)
   0   2.0000     -19.256750      -524.0028
   1   2.0000     -10.302409      -280.3428
   2   2.0000     -10.302392      -280.3423
   3   2.0000     -10.242960      -278.7251
   4   2.0000     -10.242956      -278.7250
   5   2.0000     -10.242338      -278.7082
   6   2.0000     -10.242336      -278.7081
   7   2.0000     -10.239420      -278.6288
   8   2.0000     -10.239399      -278.6282
   9   2.0000     -10.237080      -278.5651
  10   2.0000     -10.237073      -278.5649
  11   2.0000     -10.236330      -278.5447
  12   2.0000     -10.236327      -278.5446
  13   2.0000      -1.111327       -30.2407
  14   2.0000      -0.886581       -24.1251
  15   2.0000      -0.871567       -23.7166
  16   2.0000      -0.788398       -21.4534
  17   2.0000      -0.771193       -20.9852
  18   2.0000      -0.766990       -20.8709
  19   2.0000      -0.743023       -20.2187
  20   2.0000      -0.660026       -17.9602
  21   2.0000      -0.637819       -17.3559
  22   2.0000      -0.625218       -17.0130
  23   2.0000      -0.597924       -16.2703
  24   2.0000      -0.569219       -15.4892
  25   2.0000      -0.528219       -14.3736
  26   2.0000      -0.505275       -13.7492
  27   2.0000      -0.499526       -13.5928
  28   2.0000      -0.491736       -13.3808
  29   2.0000      -0.461408       -12.5556
  30   2.0000      -0.458305       -12.4711
  31   2.0000      -0.442664       -12.0455
  32   2.0000      -0.442097       -12.0301
  33   2.0000      -0.423476       -11.5234
  34   2.0000      -0.419052       -11.4030
  35   2.0000      -0.387676       -10.5492
  36   2.0000      -0.382320       -10.4035
  37   2.0000      -0.378538       -10.3005
  38   2.0000      -0.372284       -10.1304
  39   2.0000      -0.353607        -9.6221
  40   2.0000      -0.346709        -9.4344
  41   2.0000      -0.276502        -7.5240
  42   2.0000      -0.270259        -7.3541
  43   2.0000      -0.267569        -7.2809
  44   2.0000      -0.234764        -6.3883
  45   0.0000      -0.015412        -0.4194
  46   0.0000      -0.008922        -0.2428
  47   0.0000      -0.000990        -0.0269
  48   0.0000       0.010940         0.2977
  49   0.0000       0.070030         1.9056

MULLIKEN ATOMIC CHARGES
-----------------------
   0 C :   -0.168315
   1 C :   -0.095219
   2 C :   -0.088771
   3 C :   -0.098236
   4 C :   -0.140802
   5 C :    0.234196
   6 O :   -0.306690
   7 C :    0.234209
   8 C :   -0.140802
   9 C :   -0.098241
  10 C :   -0.088769
  11 C :   -0.095219
  12 C :   -0.168332
  13 H :    0.114773
  14 H :    0.100924
  15 H :    0.097022
  16 H :    0.101540
  17 H :    0.096237
  18 H :    0.096237
  19 H :    0.101541
  20 H :    0.097023
  21 H :    0.100926
  22 H :    0.114768
Sum of atomic charges:    0.0000000

LOEWDIN ATOMIC CHARGES
----------------------
   0 C :   -0.155994
   1 C :   -0.118419
   2 C :   -0.144724
   3 C :   -0.118222
   4 C :   -0.145888
   5 C :    0.042031
   6 O :   -0.060434
   7 C :    0.042035
   8 C :   -0.145892
   9 C :   -0.118221
  10 C :   -0.144728
  11 C :   -0.118418
  12 C :   -0.156003
  13 H :    0.140659
  14 H :    0.131239
  15 H :    0.129832
  16 H :    0.131350
  17 H :    0.138357
  18 H :    0.138358
  19 H :    0.131351
  20 H :    0.129833
  21 H :    0.131239
  22 H :    0.140659

  Mayer bond orders larger than 0.100000
B(  0-C ,  1-C ) :   1.3829 B(  0-C ,  5-C ) :   1.3627 B(  0-C , 22-H ) :   0.9525
B(  1-C ,  2-C ) :   1.3910 B(  1-C , 21-H ) :   0.9602 B(  2-C ,  3-C ) :   1.3916
B(  2-C , 20-H ) :   0.9655 B(  3-C ,  4-C ) :   1.3759 B(  3-C , 19-H ) :   0.9616
B(  4-C ,  5-C ) :   1.4008 B(  4-C , 18-H ) :   0.9633 B(  5-C ,  6-O ) :   1.0125
B(  6-O ,  7-C ) :   1.0125 B(  7-C ,  8-C ) :   1.4008 B(  7-C , 12-C ) :   1.3627
B(  8-C ,  9-C ) :   1.3759 B(  8-C , 17-H ) :   0.9633 B(  9-C , 10-C ) :   1.3916
B(  9-C , 16-H ) :   0.9616 B( 10-C , 11-C ) :   1.3910 B( 10-C , 15-H ) :   0.9655
B( 11-C , 12-C ) :   1.3829 B( 11-C , 14-H ) :   0.9602 B( 12-C , 13-H ) :   0.9525

Dispersion correction           -0.023570901
FINAL SINGLE POINT ENERGY      -537.500339378342

DIPOLE MOMENT
-------------

Method             : SCF
Type of density    : Electron Density
Multiplicity       :   1
Irrep              :   0
Energy             :  -537.4767684771532004 Eh
Relativity type    :
Basis              : AO
                                X                 Y                 Z
Electronic contribution:      0.000034184       2.610369933       0.000158433
Nuclear contribution   :      0.000034886      -2.982425974      -0.000176877
                        -----------------------------------------
Total Dipole Moment    :      0.000069070      -0.372056041      -0.000018443
                        -----------------------------------------
Magnitude (a.u.)       :      0.372056048
Magnitude (Debye)      :      0.945691319

VIBRATIONAL FREQUENCIES
-----------------------

Scaling factor for frequencies =  1.000000000  (already applied!)

     0:       0.00 cm**-1
     1:       0.00 cm**-1
     2:       0.00 cm**-1
     3:       0.00 cm**-1
     4:       0.00 cm**-1
     5:       0.00 cm**-1
     6:      22.25 cm**-1
     7:      45.24 cm**-1
     8:      91.00 cm**-1
     9:     222.19 cm**-1
    10:     242.39 cm**-1
    11:     319.94 cm**-1
    12:     391.62 cm**-1
    13:     424.60 cm**-1
    14:     429.66 cm**-1
    15:     495.76 cm**-1
    16:     521.09 cm**-1
    17:     577.27 cm**-1
    18:     615.92 cm**-1
    19:     628.33 cm**-1
    20:     638.90 cm**-1
    21:     717.07 cm**-1
    22:     719.67 cm**-1
    23:     773.48 cm**-1
    24:     778.35 cm**-1
    25:     820.00 cm**-1
    26:     847.63 cm**-1
    27:     851.56 cm**-1
    28:     901.46 cm**-1
    29:     928.65 cm**-1
    30:     934.44 cm**-1
    31:     990.66 cm**-1
    32:     992.15 cm**-1
    33:    1014.35 cm**-1
    34:    1014.87 cm**-1
    35:    1019.10 cm**-1
    36:    1019.12 cm**-1
    37:    1057.49 cm**-1
    38:    1057.71 cm**-1
    39:    1101.28 cm**-1
    40:    1104.14 cm**-1
    41:    1169.28 cm**-1
    42:    1169.41 cm**-1
    43:    1179.78 cm**-1
    44:    1180.96 cm**-1
    45:    1258.92 cm**-1
    46:    1325.22 cm**-1
    47:    1337.09 cm**-1
    48:    1337.66 cm**-1
    49:    1399.67 cm**-1
    50:    1409.11 cm**-1
    51:    1501.06 cm**-1
    52:    1509.41 cm**-1
    53:    1544.64 cm**-1
    54:    1549.74 cm**-1
    55:    1674.70 cm**-1
    56:    1683.86 cm**-1
    57:    1686.00 cm**-1
    58:    1704.10 cm**-1
    59:    3196.83 cm**-1
    60:    3197.02 cm**-1
    61:    3205.33 cm**-1
    62:    3205.48 cm**-1
    63:    3217.81 cm**-1
    64:    3218.29 cm**-1
    65:    3223.91 cm**-1
    66:    3224.38 cm**-1
    67:    3228.58 cm**-1
    68:    3228.69 cm**-1

IR SPECTRUM
-----------

 Mode   freq       eps      Int      T**2         TX        TY        TZ
       cm**-1   L/(mol*cm) km/mol    a.u.
----------------------------------------------------------------------------
  6:     22.25   0.000291    1.47  0.004083  ( 0.056546 -0.000003 -0.029749)
  7:     45.24   0.000030    0.15  0.000206  (-0.000007 -0.014369  0.000004)
  8:     91.00   0.000028    0.14  0.000097  (-0.000003 -0.009853 -0.000001)
  9:    222.19   0.000221    1.12  0.000310  ( 0.017386 -0.000001  0.002822)
 10:    242.39   0.000019    0.10  0.000024  (-0.000003 -0.004941  0.000001)
 11:    319.94   0.000057    0.29  0.000055  ( 0.000000  0.007441  0.000001)
 12:    391.62   0.000947    4.78  0.000754  (-0.025704 -0.000002  0.009686)
 13:    424.60   0.000091    0.46  0.000067  (-0.007967  0.000001 -0.001825)
 14:    429.66   0.000013    0.06  0.000009  ( 0.000002  0.003029  0.000001)
 15:    495.76   0.001350    6.82  0.000850  ( 0.000005  0.029152  0.000002)
 16:    521.09   0.003566   18.02  0.002136  ( 0.033662 -0.000000  0.031664)
 17:    577.27   0.000081    0.41  0.000044  (-0.004014 -0.000000 -0.005241)
 18:    615.92   0.000012    0.06  0.000006  (-0.000003 -0.002422 -0.000002)
 19:    628.33   0.000113    0.57  0.000056  ( 0.005467 -0.000001 -0.005110)
 20:    638.90   0.000076    0.38  0.000037  ( 0.000000 -0.006092 -0.000002)
 21:    717.07   0.007935   40.10  0.003453  ( 0.025707  0.000020  0.052843)
 22:    719.67   0.003395   17.16  0.001472  (-0.000008  0.038370 -0.000022)
 23:    773.48   0.001106    5.59  0.000446  (-0.000002 -0.021122  0.000003)
 24:    778.35   0.012131   61.30  0.004864  (-0.003518  0.000002 -0.069650)
 25:    820.00   0.003181   16.08  0.001211  ( 0.000001  0.034793  0.000005)
 26:    847.63   0.000054    0.27  0.000020  ( 0.003080  0.000002  0.003246)
 27:    851.56   0.000096    0.49  0.000035  ( 0.000000  0.005946 -0.000001)
 28:    901.46   0.005940   30.02  0.002056  (-0.045330 -0.000001  0.001119)
 29:    928.65   0.001684    8.51  0.000566  ( 0.011065 -0.000006  0.021059)
 30:    934.44   0.000753    3.80  0.000251  ( 0.000007  0.015853  0.000009)
 31:    990.66   0.000039    0.20  0.000012  (-0.003237  0.000002  0.001357)
 32:    992.15   0.000009    0.05  0.000003  ( 0.000003  0.001722 -0.000002)
 33:   1014.35   0.000036    0.18  0.000011  (-0.000693  0.000001  0.003243)
 34:   1014.87   0.000012    0.06  0.000004  (-0.000003  0.001903 -0.000003)
 35:   1019.10   0.000579    2.93  0.000177  ( 0.013309  0.000026  0.000520)
 36:   1019.12   0.000011    0.05  0.000003  (-0.000183  0.001797 -0.000007)
 37:   1057.49   0.000150    0.76  0.000044  ( 0.000391 -0.006649  0.000013)
 38:   1057.71   0.001894    9.57  0.000559  ( 0.023625  0.000111  0.000805)
 39:   1101.28   0.001566    7.91  0.000444  ( 0.007062  0.000023 -0.019848)
 40:   1104.14   0.002043   10.33  0.000578  (-0.000007  0.024032  0.000018)
 41:   1169.28   0.000042    0.21  0.000011  (-0.002139 -0.000028 -0.002559)
 42:   1169.41   0.000097    0.49  0.000026  (-0.000012  0.005095 -0.000013)
 43:   1179.78   0.000255    1.29  0.000067  ( 0.000026 -0.008210 -0.000004)
 44:   1180.96   0.001410    7.12  0.000373  ( 0.019164  0.000013 -0.002294)
 45:   1258.92   0.001103    5.57  0.000273  ( 0.000008  0.016534  0.000002)
 46:   1325.22   0.000977    4.94  0.000230  ( 0.015023 -0.000001  0.002071)
 47:   1337.09   0.093251  471.25  0.021764  (-0.147417 -0.000004 -0.005660)
 48:   1337.66   0.000144    0.73  0.000034  (-0.000038  0.005803 -0.000001)
 49:   1399.67   0.003334   16.85  0.000743  ( 0.026867 -0.000001 -0.004633)
 50:   1409.11   0.000042    0.21  0.000009  ( 0.000007 -0.003060 -0.000001)
 51:   1501.06   0.000185    0.94  0.000039  (-0.002149  0.000000 -0.005826)
 52:   1509.41   0.000263    1.33  0.000054  ( 0.000000 -0.007369  0.000001)
 53:   1544.64   0.073013  368.98  0.014751  (-0.121302  0.000001 -0.006060)
 54:   1549.74   0.002997   15.15  0.000604  (-0.000015 -0.024567 -0.000002)
 55:   1674.70   0.001269    6.41  0.000236  ( 0.000806  0.000003  0.015354)
 56:   1683.86   0.002197   11.10  0.000407  (-0.000015  0.020176 -0.000001)
 57:   1686.00   0.034720  175.46  0.006426  ( 0.080160  0.000006  0.000897)
 58:   1704.10   0.000564    2.85  0.000103  ( 0.000004  0.010161  0.000001)
 59:   3196.83   0.000626    3.16  0.000061  ( 0.007629 -0.000018  0.001694)
 60:   3197.02   0.000068    0.35  0.000007  ( 0.000059  0.002581  0.000015)
 61:   3205.33   0.001152    5.82  0.000112  (-0.004136 -0.000152  0.009747)
 62:   3205.48   0.001533    7.75  0.000149  (-0.000053  0.012217  0.000120)
 63:   3217.81   0.005058   25.56  0.000491  ( 0.022141 -0.000013 -0.000542)
 64:   3218.29   0.000584    2.95  0.000057  ( 0.000045  0.007523  0.000002)
 65:   3223.91   0.000554    2.80  0.000054  (-0.003007  0.000007 -0.006680)
 66:   3224.38   0.000918    4.64  0.000089  ( 0.000007 -0.009427 -0.000007)
 67:   3228.58   0.000775    3.92  0.000075  (-0.007965  0.000036  0.003390)
 68:   3228.69   0.000066    0.33  0.000006  ( 0.000126  0.002520 -0.000059)

--------------------------
THERMOCHEMISTRY AT 298.15K
--------------------------

Temperature         ...   298.15 K
Pressure            ...     1.00 atm
Total Mass          ...   170.21 AMU
Quasi RRHO          ...     True
Cut-Off Frequency   ...     1.00 cm^-1

Throughout the following assumptions are being made:
  (1) The electronic state is orbitally nondegenerate
  (2) There are no thermally accessible electronically excited states
  (3) Hindered rotations indicated by low frequency modes are not
      treated as such but are treated as vibrations and this may
      cause some error
  (4) All equations used are the standard statistical mechanics
      equations for an ideal gas
  (5) All vibrations are strictly harmonic

freq.      22.25  E(vib)   ...       0.56
freq.      45.24  E(vib)   ...       0.53
freq.      91.00  E(vib)   ...       0.47
freq.     222.19  E(vib)   ...       0.33
freq.     242.39  E(vib)   ...       0.31
freq.     319.94  E(vib)   ...       0.25
freq.     391.62  E(vib)   ...       0.20
freq.     424.60  E(vib)   ...       0.18
freq.     429.66  E(vib)   ...       0.18
freq.     495.76  E(vib)   ...       0.14
freq.     521.09  E(vib)   ...       0.13
freq.     577.27  E(vib)   ...       0.11
freq.     615.92  E(vib)   ...       0.10
freq.     628.33  E(vib)   ...       0.09
freq.     638.90  E(vib)   ...       0.09
freq.     717.07  E(vib)   ...       0.07
freq.     719.67  E(vib)   ...       0.07
freq.     773.48  E(vib)   ...       0.05
freq.     778.35  E(vib)   ...       0.05
freq.     820.00  E(vib)   ...       0.05
freq.     847.63  E(vib)   ...       0.04
freq.     851.56  E(vib)   ...       0.04
freq.     901.46  E(vib)   ...       0.03
freq.     928.65  E(vib)   ...       0.03
freq.     934.44  E(vib)   ...       0.03
freq.     990.66  E(vib)   ...       0.02
freq.     992.15  E(vib)   ...       0.02
freq.    1014.35  E(vib)   ...       0.02
freq.    1014.87  E(vib)   ...       0.02
freq.    1019.10  E(vib)   ...       0.02
freq.    1019.12  E(vib)   ...       0.02
freq.    1057.49  E(vib)   ...       0.02
freq.    1057.71  E(vib)   ...       0.02
freq.    1101.28  E(vib)   ...       0.02
freq.    1104.14  E(vib)   ...       0.02
freq.    1169.28  E(vib)   ...       0.01
freq.    1169.41  E(vib)   ...       0.01
freq.    1179.78  E(vib)   ...       0.01
freq.    1180.96  E(vib)   ...       0.01
freq.    1258.92  E(vib)   ...       0.01
freq.    1325.22  E(vib)   ...       0.01
freq.    1337.09  E(vib)   ...       0.01
freq.    1337.66  E(vib)   ...       0.01
freq.    1399.67  E(vib)   ...       0.00
freq.    1409.11  E(vib)   ...       0.00
freq.    1501.06  E(vib)   ...       0.00
freq.    1509.41  E(vib)   ...       0.00
freq.    1544.64  E(vib)   ...       0.00
freq.    1549.74  E(vib)   ...       0.00
freq.    1674.70  E(vib)   ...       0.00
freq.    1683.86  E(vib)   ...       0.00
freq.    1686.00  E(vib)   ...       0.00
freq.    1704.10  E(vib)   ...       0.00
freq.    3196.83  E(vib)   ...       0.00
freq.    3197.02  E(vib)   ...       0.00
freq.    3205.33  E(vib)   ...       0.00
freq.    3205.48  E(vib)   ...       0.00
freq.    3217.81  E(vib)   ...       0.00
freq.    3218.29  E(vib)   ...       0.00
freq.    3223.91  E(vib)   ...       0.00
freq.    3224.38  E(vib)   ...       0.00
freq.    3228.58  E(vib)   ...       0.00
freq.    3228.69  E(vib)   ...       0.00

------------
INNER ENERGY
------------

The inner energy is: U= E(el) + E(ZPE) + E(vib) + E(rot) + E(trans)
    E(el)   - is the total energy from the electronic structure calculation
              = E(kin-el) + E(nuc-el) + E(el-el) + E(nuc-nuc)
    E(ZPE)  - the the zero temperature vibrational energy from the frequency calculation
    E(vib)  - the the finite temperature correction to E(ZPE) due to population
              of excited vibrational states
    E(rot)  - is the rotational thermal energy
    E(trans)- is the translational thermal energy

Summary of contributions to the inner energy U:
Electronic energy                ...   -537.50033938 Eh
Zero point energy                ...      0.18698353 Eh     117.33 kcal/mol
Thermal vibrational correction   ...      0.00705777 Eh       4.43 kcal/mol
Thermal rotational correction    ...      0.00141627 Eh       0.89 kcal/mol
Thermal translational correction ...      0.00141627 Eh       0.89 kcal/mol
-----------------------------------------------------------------------
Total thermal energy                   -537.30346554 Eh

Summary of corrections to the electronic energy:
(perhaps to be used in another calculation)
Total thermal correction                  0.00989031 Eh       6.21 kcal/mol
Non-thermal (ZPE) correction              0.18698353 Eh     117.33 kcal/mol
-----------------------------------------------------------------------
Total correction                          0.19687384 Eh     123.54 kcal/mol

--------
ENTHALPY
--------

The enthalpy is H = U + kB*T
                kB is Boltzmann's constant
Total thermal energy              ...   -537.30346554 Eh
Thermal Enthalpy correction       ...      0.00094421 Eh       0.59 kcal/mol
-----------------------------------------------------------------------
Total Enthalpy                    ...   -537.30252133 Eh

Note: Only C1 symmetry has been detected, increase convergence thresholds
      if your molecule has a higher symmetry. Symmetry factor of 1.0 is
      used for the rotational entropy correction.

Note: Rotational entropy computed according to Herzberg
Infrared and Raman Spectra, Chapter V,1, Van Nostrand Reinhold, 1945
Point Group:  C1, Symmetry Number:   1
Rotational constants in cm-1:     0.080234     0.014509     0.013552

Vibrational entropy computed according to the QRRHO of S. Grimme
Chem.Eur.J. 2012 18 9955 using a reference frequency of 100.0 cm-1

-------
ENTROPY
-------

The entropy contributions are T*S = T*(S(el)+S(vib)+S(rot)+S(trans))
     S(el)   - electronic entropy
     S(vib)  - vibrational entropy
     S(rot)  - rotational entropy
     S(trans)- translational entropy
The entropies will be listed as multiplied by the temperature to get
units of energy

Electronic entropy                ...      0.00000000 Eh      0.00 kcal/mol
Vibrational entropy               ...      0.01197202 Eh      7.51 kcal/mol
Rotational entropy                ...      0.01473072 Eh      9.24 kcal/mol
Translational entropy             ...      0.01962451 Eh     12.31 kcal/mol
-----------------------------------------------------------------------
Final entropy term                ...      0.04632726 Eh     29.07 kcal/mol

In case the symmetry of your molecule has not been determined correctly
or in case you have a reason to use a different symmetry number we print

                             ****ORCA TERMINATED NORMALLY****
TOTAL RUN TIME: 0 days 0 hours 11 minutes 39 seconds 548 msec
