                         Program Version 6.0.0  -   RELEASE  -
|  1> !B3LYP freq aug-cc-pVTZ d3 TightSCF SlowConv RIJCOSX defgrid2
|  2>
|  3> %pal
|  4> nprocs 12
|  5>
|  6> end
|  7>
|  8> %scf
|  9> MaxIter 1500
| 10> end
| 11>
| 12> %maxcore 5000
| 13>
| 14> !CPCM
| 15> %cpcm smd true
| 16> SMDsolvent "MeCN"
| 17> surfacetype gepol_ses
| 18> rsolv 2.19
| 19> end
| 20>
| 21> * xyz 0 1
| 22> C          -1.19875654782712     -0.02068461317221      0.00014770699312
| 23> C          -1.20232230292159      1.37810681239512      0.00041680774478
| 24> C           0.00003221565435      2.06787882446599      0.00002547321852
| 25> C           1.20235891558055      1.37806300955874     -0.00046889442332
| 26> C           1.19875690615780     -0.02072714303097     -0.00032678058801
| 27> C          -0.00001267850654     -0.73026468055861     -0.00014977741285
| 28> H          -0.00003024057827     -1.80925363338820     -0.00024133185259
| 29> C           2.43553705643988     -0.73266668889327     -0.00017180013605
| 30> N           3.43601697118398     -1.30382376954140      0.00126534714944
| 31> H           2.14074566065269      1.91228840117348     -0.00062677225602
| 32> H           0.00005677128006      3.14777204824509      0.00009169691994
| 33> H          -2.14068912484150      1.91236409347109      0.00061874419858
| 34> C          -2.43556292720909     -0.73257795918099     -0.00003461695254
| 35> N          -3.43606647506518     -1.30369520154386     -0.00048570260298
| 36> *
| 37>
| 38>                          ****END OF INPUT****

CARTESIAN COORDINATES (ANGSTROEM)
---------------------------------
  C     -1.198757   -0.020685    0.000148
  C     -1.202322    1.378107    0.000417
  C      0.000032    2.067879    0.000025
  C      1.202359    1.378063   -0.000469
  C      1.198757   -0.020727   -0.000327
  C     -0.000013   -0.730265   -0.000150
  H     -0.000030   -1.809254   -0.000241
  C      2.435537   -0.732667   -0.000172
  N      3.436017   -1.303824    0.001265
  H      2.140746    1.912288   -0.000627
  H      0.000057    3.147772    0.000092
  H     -2.140689    1.912364    0.000619
  C     -2.435563   -0.732578   -0.000035
  N     -3.436066   -1.303695   -0.000486

 Total Charge           Charge          ....    0
 Multiplicity           Mult            ....    1
 Number of Electrons    NEL             ....   66
 Basis Dimension        Dim             ....  552

ORBITAL ENERGIES
----------------

  NO   OCC          E(Eh)            E(eV)
   0   2.0000     -14.330960      -389.9652
   1   2.0000     -14.330957      -389.9652
   2   2.0000     -10.234631      -278.4985
   3   2.0000     -10.234609      -278.4979
   4   2.0000     -10.231154      -278.4038
   5   2.0000     -10.231145      -278.4036
   6   2.0000     -10.218077      -278.0480
   7   2.0000     -10.210396      -277.8390
   8   2.0000     -10.210366      -277.8382
   9   2.0000     -10.198452      -277.5140
  10   2.0000      -0.932652       -25.3787
  11   2.0000      -0.928212       -25.2579
  12   2.0000      -0.894653       -24.3447
  13   2.0000      -0.807578       -21.9753
  14   2.0000      -0.789131       -21.4733
  15   2.0000      -0.670468       -18.2443
  16   2.0000      -0.666066       -18.1246
  17   2.0000      -0.598161       -16.2768
  18   2.0000      -0.513732       -13.9794
  19   2.0000      -0.508383       -13.8338
  20   2.0000      -0.497025       -13.5247
  21   2.0000      -0.454789       -12.3754
  22   2.0000      -0.429645       -11.6912
  23   2.0000      -0.402356       -10.9487
  24   2.0000      -0.397883       -10.8269
  25   2.0000      -0.391914       -10.6645
  26   2.0000      -0.386808       -10.5256
  27   2.0000      -0.383104       -10.4248
  28   2.0000      -0.355420        -9.6715
  29   2.0000      -0.354959        -9.6589
  30   2.0000      -0.354404        -9.6438
  31   2.0000      -0.284485        -7.7412
  32   2.0000      -0.280328        -7.6281
  33   0.0000      -0.073789        -2.0079
  34   0.0000      -0.058319        -1.5869
  35   0.0000      -0.006216        -0.1691
  36   0.0000       0.006680         0.1818
  37   0.0000       0.011264         0.3065

MULLIKEN ATOMIC CHARGES
-----------------------
   0 C :    1.425060
   1 C :   -0.772779
   2 C :   -0.500113
   3 C :   -0.773527
   4 C :    1.426813
   5 C :   -0.937436
   6 H :    0.020968
   7 C :    0.432506
   8 N :   -0.804239
   9 H :    0.121149
  10 H :    0.611643
  11 H :    0.121636
  12 C :    0.432329
  13 N :   -0.804010
Sum of atomic charges:    0.0000000

LOEWDIN ATOMIC CHARGES
----------------------
   0 C :   -0.180345
   1 C :    0.235206
   2 C :    0.246249
   3 C :    0.235198
   4 C :   -0.180341
   5 C :    0.224126
   6 H :   -0.147185
   7 C :   -0.237135
   8 N :    0.252167
   9 H :   -0.151982
  10 H :   -0.159004
  11 H :   -0.151982
  12 C :   -0.237140
  13 N :    0.252169

  Mayer bond orders larger than 0.100000
B(  0-C ,  1-C ) :   0.2839 B(  0-C ,  2-C ) :   0.1099 B(  0-C ,  4-C ) :   0.2592
B(  0-C ,  5-C ) :   0.4444 B(  0-C ,  6-H ) :  -0.1820 B(  0-C , 11-H ) :  -0.1842
B(  0-C , 12-C ) :   0.5876 B(  1-C ,  2-C ) :   1.1880 B(  1-C ,  3-C ) :  -0.1987
B(  1-C ,  5-C ) :  -0.2000 B(  1-C , 11-H ) :   1.2681 B(  1-C , 12-C ) :   0.3472
B(  1-C , 13-N ) :   0.1069 B(  2-C ,  3-C ) :   1.1894 B(  2-C ,  4-C ) :   0.1104
B(  2-C , 10-H ) :   0.4570 B(  3-C ,  4-C ) :   0.2819 B(  3-C ,  5-C ) :  -0.1997
B(  3-C ,  7-C ) :   0.3487 B(  3-C ,  8-N ) :   0.1069 B(  3-C ,  9-H ) :   1.2691
B(  4-C ,  5-C ) :   0.4459 B(  4-C ,  6-H ) :  -0.1817 B(  4-C ,  7-C ) :   0.5860
B(  4-C ,  9-H ) :  -0.1851 B(  5-C ,  6-H ) :   1.3564 B(  5-C ,  7-C ) :   0.1270
B(  5-C , 12-C ) :   0.1275 B(  7-C ,  8-N ) :   1.7124 B(  7-C , 12-C ) :   0.2044
B( 12-C , 13-N ) :   1.7129

Dispersion correction           -0.028172869
FINAL SINGLE POINT ENERGY      -416.682233726183

DIPOLE MOMENT
-------------

Method             : SCF
Type of density    : Electron Density
Multiplicity       :   1
Irrep              :   0
Energy             :  -416.6540608574819089 Eh
Relativity type    :
Basis              : AO
                                X                 Y                 Z
Electronic contribution:     -0.000040578      -2.429275707      -0.000525185
Nuclear contribution   :      0.000084758       4.836804488      -0.000261492
                        -----------------------------------------
Total Dipole Moment    :      0.000044179       2.407528781      -0.000786677
                        -----------------------------------------
Magnitude (a.u.)       :      2.407528910
Magnitude (Debye)      :      6.119452168

VIBRATIONAL FREQUENCIES
-----------------------

Scaling factor for frequencies =  1.000000000  (already applied!)

     0:       0.00 cm**-1
     1:       0.00 cm**-1
     2:       0.00 cm**-1
     3:       0.00 cm**-1
     4:       0.00 cm**-1
     5:       0.00 cm**-1
     6:     118.37 cm**-1
     7:     118.81 cm**-1
     8:     156.36 cm**-1
     9:     194.36 cm**-1
    10:     384.59 cm**-1
    11:     391.19 cm**-1
    12:     462.46 cm**-1
    13:     462.69 cm**-1
    14:     527.12 cm**-1
    15:     544.92 cm**-1
    16:     612.77 cm**-1
    17:     635.45 cm**-1
    18:     685.41 cm**-1
    19:     712.47 cm**-1
    20:     814.57 cm**-1
    21:     912.07 cm**-1
    22:     921.88 cm**-1
    23:     954.62 cm**-1
    24:    1014.35 cm**-1
    25:    1017.64 cm**-1
    26:    1113.08 cm**-1
    27:    1165.27 cm**-1
    28:    1184.98 cm**-1
    29:    1261.77 cm**-1
    30:    1310.05 cm**-1
    31:    1347.65 cm**-1
    32:    1445.89 cm**-1
    33:    1506.28 cm**-1
    34:    1609.42 cm**-1
    35:    1638.32 cm**-1
    36:    2330.31 cm**-1
    37:    2333.04 cm**-1
    38:    3197.35 cm**-1
    39:    3206.68 cm**-1
    40:    3214.27 cm**-1
    41:    3215.06 cm**-1

IR SPECTRUM
-----------

 Mode   freq       eps      Int      T**2         TX        TY        TZ
       cm**-1   L/(mol*cm) km/mol    a.u.
----------------------------------------------------------------------------
  6:    118.37   0.003788   19.14  0.009987  (-0.000005  0.099920  0.001666)
  7:    118.81   0.002085   10.53  0.005475  (-0.000153 -0.002232  0.073961)
  8:    156.36   0.000000    0.00  0.000000  (-0.000074  0.000234 -0.000010)
  9:    194.36   0.000772    3.90  0.001239  ( 0.035196  0.000005  0.000244)
 10:    384.59   0.000000    0.00  0.000000  ( 0.000030  0.000100  0.000008)
 11:    391.19   0.000218    1.10  0.000174  ( 0.000092  0.000030  0.013190)
 12:    462.46   0.000267    1.35  0.000180  ( 0.000087  0.013425  0.000030)
 13:    462.69   0.000027    0.14  0.000018  (-0.004279  0.000256 -0.000209)
 14:    527.12   0.006901   34.88  0.004086  (-0.000085  0.000049  0.063919)
 15:    544.92   0.000615    3.11  0.000352  ( 0.000003  0.018773 -0.000032)
 16:    612.77   0.000483    2.44  0.000246  (-0.015684  0.000001  0.000323)
 17:    635.45   0.000000    0.00  0.000000  ( 0.000087 -0.000045  0.000004)
 18:    685.41   0.011355   57.38  0.005170  (-0.000117 -0.000003  0.071902)
 19:    712.47   0.000060    0.30  0.000026  (-0.000004 -0.005118  0.000005)
 20:    814.57   0.008374   42.32  0.003208  (-0.000034  0.000011  0.056639)
 21:    912.07   0.002297   11.61  0.000786  ( 0.028032  0.000000 -0.000383)
 22:    921.88   0.004014   20.28  0.001359  (-0.000277  0.000011 -0.036859)
 23:    954.62   0.000001    0.00  0.000000  (-0.000014  0.000431 -0.000015)
 24:   1014.35   0.000317    1.60  0.000097  (-0.000009  0.009871 -0.000011)
 25:   1017.64   0.000019    0.10  0.000006  ( 0.000164  0.000003 -0.002409)
 26:   1113.08   0.002634   13.31  0.000739  (-0.000009 -0.027176 -0.000005)
 27:   1165.27   0.002367   11.96  0.000634  ( 0.025175 -0.000003  0.000129)
 28:   1184.98   0.000859    4.34  0.000226  ( 0.015038 -0.000000  0.000139)
 29:   1261.77   0.000824    4.17  0.000204  ( 0.000007  0.014279  0.000009)
 30:   1310.05   0.000403    2.04  0.000096  (-0.009802  0.000001 -0.000065)
 31:   1347.65   0.000878    4.44  0.000203  (-0.014261  0.000004  0.000009)
 32:   1445.89   0.002117   10.70  0.000457  ( 0.000008 -0.021374  0.000006)
 33:   1506.28   0.003181   16.08  0.000659  ( 0.025673 -0.000002  0.000034)
 34:   1609.42   0.000039    0.20  0.000008  ( 0.000012 -0.002743  0.000001)
 35:   1638.32   0.002845   14.38  0.000542  (-0.023279  0.000003  0.000076)
 36:   2330.31   0.053001  267.85  0.007098  ( 0.084248  0.000002 -0.000025)
 37:   2333.04   0.014207   71.79  0.001900  ( 0.000004 -0.043592 -0.000004)
 38:   3197.35   0.000208    1.05  0.000020  (-0.000000 -0.004509 -0.000001)
 39:   3206.68   0.000053    0.27  0.000005  (-0.002260 -0.000000  0.000059)
 40:   3214.27   0.000045    0.23  0.000004  ( 0.000001 -0.002097  0.000001)
 41:   3215.06   0.000523    2.64  0.000051  (-0.000001  0.007122 -0.000001)

--------------------------
THERMOCHEMISTRY AT 298.15K
--------------------------

Temperature         ...   298.15 K
Pressure            ...     1.00 atm
Total Mass          ...   128.13 AMU
Quasi RRHO          ...     True
Cut-Off Frequency   ...     1.00 cm^-1

Throughout the following assumptions are being made:
  (1) The electronic state is orbitally nondegenerate
  (2) There are no thermally accessible electronically excited states
  (3) Hindered rotations indicated by low frequency modes are not
      treated as such but are treated as vibrations and this may
      cause some error
  (4) All equations used are the standard statistical mechanics
      equations for an ideal gas
  (5) All vibrations are strictly harmonic

freq.     118.37  E(vib)   ...       0.44
freq.     118.81  E(vib)   ...       0.44
freq.     156.36  E(vib)   ...       0.40
freq.     194.36  E(vib)   ...       0.36
freq.     384.59  E(vib)   ...       0.20
freq.     391.19  E(vib)   ...       0.20
freq.     462.46  E(vib)   ...       0.16
freq.     462.69  E(vib)   ...       0.16
freq.     527.12  E(vib)   ...       0.13
freq.     544.92  E(vib)   ...       0.12
freq.     612.77  E(vib)   ...       0.10
freq.     635.45  E(vib)   ...       0.09
freq.     685.41  E(vib)   ...       0.07
freq.     712.47  E(vib)   ...       0.07
freq.     814.57  E(vib)   ...       0.05
freq.     912.07  E(vib)   ...       0.03
freq.     921.88  E(vib)   ...       0.03
freq.     954.62  E(vib)   ...       0.03
freq.    1014.35  E(vib)   ...       0.02
freq.    1017.64  E(vib)   ...       0.02
freq.    1113.08  E(vib)   ...       0.01
freq.    1165.27  E(vib)   ...       0.01
freq.    1184.98  E(vib)   ...       0.01
freq.    1261.77  E(vib)   ...       0.01
freq.    1310.05  E(vib)   ...       0.01
freq.    1347.65  E(vib)   ...       0.01
freq.    1445.89  E(vib)   ...       0.00
freq.    1506.28  E(vib)   ...       0.00
freq.    1609.42  E(vib)   ...       0.00
freq.    1638.32  E(vib)   ...       0.00
freq.    2330.31  E(vib)   ...       0.00
freq.    2333.04  E(vib)   ...       0.00
freq.    3197.35  E(vib)   ...       0.00
freq.    3206.68  E(vib)   ...       0.00
freq.    3214.27  E(vib)   ...       0.00
freq.    3215.06  E(vib)   ...       0.00

------------
INNER ENERGY
------------

The inner energy is: U= E(el) + E(ZPE) + E(vib) + E(rot) + E(trans)
    E(el)   - is the total energy from the electronic structure calculation
              = E(kin-el) + E(nuc-el) + E(el-el) + E(nuc-nuc)
    E(ZPE)  - the the zero temperature vibrational energy from the frequency calculation
    E(vib)  - the the finite temperature correction to E(ZPE) due to population
              of excited vibrational states
    E(rot)  - is the rotational thermal energy
    E(trans)- is the translational thermal energy

Summary of contributions to the inner energy U:
Electronic energy                ...   -416.68223373 Eh
Zero point energy                ...      0.09732675 Eh      61.07 kcal/mol
Thermal vibrational correction   ...      0.00506908 Eh       3.18 kcal/mol
Thermal rotational correction    ...      0.00141627 Eh       0.89 kcal/mol
Thermal translational correction ...      0.00141627 Eh       0.89 kcal/mol
-----------------------------------------------------------------------
Total thermal energy                   -416.57700535 Eh

Summary of corrections to the electronic energy:
(perhaps to be used in another calculation)
Total thermal correction                  0.00790162 Eh       4.96 kcal/mol
Non-thermal (ZPE) correction              0.09732675 Eh      61.07 kcal/mol
-----------------------------------------------------------------------
Total correction                          0.10522837 Eh      66.03 kcal/mol

--------
ENTHALPY
--------

The enthalpy is H = U + kB*T
                kB is Boltzmann's constant
Total thermal energy              ...   -416.57700535 Eh
Thermal Enthalpy correction       ...      0.00094421 Eh       0.59 kcal/mol
-----------------------------------------------------------------------
Total Enthalpy                    ...   -416.57606114 Eh

Note: Only C1 symmetry has been detected, increase convergence thresholds
      if your molecule has a higher symmetry. Symmetry factor of 1.0 is
      used for the rotational entropy correction.

Note: Rotational entropy computed according to Herzberg
Infrared and Raman Spectra, Chapter V,1, Van Nostrand Reinhold, 1945
Point Group:  C1, Symmetry Number:   1
Rotational constants in cm-1:     0.091336     0.030554     0.022895

Vibrational entropy computed according to the QRRHO of S. Grimme
Chem.Eur.J. 2012 18 9955 using a reference frequency of 100.0 cm-1

-------
ENTROPY
-------

The entropy contributions are T*S = T*(S(el)+S(vib)+S(rot)+S(trans))
     S(el)   - electronic entropy
     S(vib)  - vibrational entropy
     S(rot)  - rotational entropy
     S(trans)- translational entropy
The entropies will be listed as multiplied by the temperature to get
units of energy

Electronic entropy                ...      0.00000000 Eh      0.00 kcal/mol
Vibrational entropy               ...      0.00848220 Eh      5.32 kcal/mol
Rotational entropy                ...      0.01407039 Eh      8.83 kcal/mol
Translational entropy             ...      0.01922234 Eh     12.06 kcal/mol
-----------------------------------------------------------------------
Final entropy term                ...      0.04177493 Eh     26.21 kcal/mol

In case the symmetry of your molecule has not been determined correctly
or in case you have a reason to use a different symmetry number we print
out the resulting rotational entropy values for sn=1,12:

 non-linear molecules -----------------------------------
|  sn= 1 | S(rot)=       0.01407039 Eh      8.83 kcal/mol|
|  sn= 2 | S(rot)=       0.01341594 Eh      8.42 kcal/mol|
|  sn= 3 | S(rot)=       0.01303310 Eh      8.18 kcal/mol|
|  sn= 4 | S(rot)=       0.01276148 Eh      8.01 kcal/mol|
|  sn= 5 | S(rot)=       0.01255079 Eh      7.88 kcal/mol|
|  sn= 6 | S(rot)=       0.01237865 Eh      7.77 kcal/mol|
|  sn= 7 | S(rot)=       0.01223310 Eh      7.68 kcal/mol|
|  sn= 8 | S(rot)=       0.01210702 Eh      7.60 kcal/mol|
|  sn= 9 | S(rot)=       0.01199582 Eh      7.53 kcal/mol|
|  sn=10 | S(rot)=       0.01189634 Eh      7.47 kcal/mol|
|  sn=11 | S(rot)=       0.01180635 Eh      7.41 kcal/mol|
|  sn=12 | S(rot)=       0.01172419 Eh      7.36 kcal/mol|
 linear molecules ---------------------------------------
|  Dinfh | S(rot)=       0.00889181 Eh      5.58 kcal/mol|
|  Cinfv | S(rot)=       0.00954627 Eh      5.99 kcal/mol|
 --------------------------------------------------------

-------------------
GIBBS FREE ENERGY
-------------------

The Gibbs free energy is G = H - T*S

                             ****ORCA TERMINATED NORMALLY****
TOTAL RUN TIME: 0 days 0 hours 19 minutes 58 seconds 107 msec
