                         Program Version 6.0.0  -   RELEASE  -
|  1> !PBE0 def2-SV(p) Opt Freq d3 TightSCF SlowConv RIJCOSX defgrid2
|  2>
|  3> %pal
|  4> nprocs 4
|  5> end
|  6>
|  7> %scf
|  8> MaxIter 1500
|  9> end
| 10>
| 11> %maxcore 3000
| 12>
| 13>
| 14>
| 15> * xyz 0 1
| 16> C     1.1141997   -1.2761990    0.1047408
| 17> C     0.4022086    0.0533911    0.0632399
| 18> C     1.0783741    1.2018040   -0.0575120
| 19> C     2.5753482    1.2950669   -0.1255326
| 20> C     3.2174547   -0.0536352   -0.4313275
| 21> C     2.5896166   -1.1178235    0.4587270
| 22> H     3.1021987   -2.0747154    0.3358588
| 23> H     2.6846612   -0.8133597    1.5030689
| 24> H     4.2962831   -0.0023107   -0.2675411
| 25> H     3.0465468   -0.3135177   -1.4784837
| 26> H     2.8590992    2.0266794   -0.8891296
| 27> H     2.9615651    1.6716703    0.8311143
| 28> H     0.5625966    2.1498473   -0.0708760
| 29> N    -0.9694835   -0.0069630    0.2061237
| 30> C    -1.7888453    1.1851434    0.1571240
| 31> C    -3.2133589    0.6537972    0.2763287
| 32> C    -3.1315737   -0.6543362   -0.5052152
| 33> C    -1.7485258   -1.1882818   -0.1260922
| 34> H    -1.2994701   -1.7579156   -0.9449108
| 35> H    -1.8199710   -1.8478191    0.7498457
| 36> H    -3.9268728   -1.3520383   -0.2516038
| 37> H    -3.1731580   -0.4488903   -1.5756560
| 38> H    -3.9500054    1.3453328   -0.1266909
| 39> H    -3.4494092    0.4518927    1.3213067
| 40> H    -1.5210850    1.8597401    0.9750231
| 41> H    -1.6554703    1.7256571   -0.7934460
| 42> H     0.6273895   -1.9255939    0.8351585
| 43> H     1.0331754   -1.7611069   -0.8742790
| 44> *
| 45>
| 46>                          ****END OF INPUT****
 Total Charge           Charge          ....    0
 Multiplicity           Mult            ....    1
 Number of Electrons    NEL             ....   84
Dispersion correction           -0.025621460
FINAL SINGLE POINT ENERGY      -445.180813930791
Dispersion correction             ... done (  0.1 sec)
Dispersion correction           -0.025495299
FINAL SINGLE POINT ENERGY      -445.183413297614
Dispersion correction             ... done (  0.0 sec)
Dispersion correction           -0.025471847
FINAL SINGLE POINT ENERGY      -445.183696273034
Dispersion correction             ... done (  0.0 sec)
FINAL SINGLE POINT ENERGY      -445.183858856052
FINAL SINGLE POINT ENERGY      -445.183916857085
FINAL SINGLE POINT ENERGY      -445.183989707746
FINAL SINGLE POINT ENERGY      -445.184047167713
FINAL SINGLE POINT ENERGY      -445.184082612528
Dispersion correction             ... done (  0.0 sec)
Dispersion correction           -0.025441871
FINAL SINGLE POINT ENERGY      -445.184094369982
Dispersion correction             ... done (  0.0 sec)
Dispersion correction           -0.025439559
FINAL SINGLE POINT ENERGY      -445.184098267588
Dispersion correction             ... done (  0.0 sec)
                    ***********************HURRAY********************

CARTESIAN COORDINATES (ANGSTROEM)
---------------------------------
  C      1.111861   -1.271618    0.035297
  C      0.400626    0.060501    0.016457
  C      1.091323    1.227285   -0.014812
  C      2.590714    1.312138   -0.042600
  C      3.241598   -0.019376   -0.398413
  C      2.589114   -1.146770    0.388327
  H      3.097489   -2.108916    0.200967
  H      2.690426   -0.938178    1.470321
  H      4.327993    0.016917   -0.203399
  H      3.116074   -0.214565   -1.480817
  H      2.907977    2.087984   -0.764846
  H      2.977585    1.655470    0.940733
  H      0.547183    2.176403   -0.019025
  N     -0.976167    0.004959    0.026972
  C     -1.788725    1.197475    0.057154
  C     -3.210053    0.669642    0.235963
  C     -3.152373   -0.695993   -0.442935
  C     -1.766106   -1.206590   -0.057150
  H     -1.365633   -1.911418   -0.806409
  H     -1.805378   -1.750155    0.912142
  H     -3.959705   -1.378956   -0.132183
  H     -3.214122   -0.575196   -1.539260
  H     -3.972167    1.341379   -0.190768
  H     -3.434195    0.547527    1.310734
  H     -1.481637    1.867308    0.883320
  H     -1.679223    1.780419   -0.883317
  H      0.613564   -1.947154    0.753202
  H      1.005446   -1.755005   -0.956292

 Multiplicity           Mult            ....    1
 Number of Electrons    NEL             ....   84
 Basis Dimension        Dim             ....  188

ORBITAL ENERGIES
----------------

  NO   OCC          E(Eh)            E(eV)
   0   2.0000     -14.393696      -391.6724
   1   2.0000     -10.258842      -279.1573
   2   2.0000     -10.252374      -278.9813
   3   2.0000     -10.252292      -278.9790
   4   2.0000     -10.232824      -278.4493
   5   2.0000     -10.231531      -278.4141
   6   2.0000     -10.225319      -278.2451
   7   2.0000     -10.218568      -278.0614
   8   2.0000     -10.213721      -277.9295
   9   2.0000     -10.212684      -277.9013
  10   2.0000     -10.191645      -277.3288
  11   2.0000      -0.969376       -26.3781
  12   2.0000      -0.846827       -23.0433
  13   2.0000      -0.804756       -21.8985
  14   2.0000      -0.758566       -20.6416
  15   2.0000      -0.739132       -20.1128
  16   2.0000      -0.725032       -19.7291
  17   2.0000      -0.636643       -17.3239
  18   2.0000      -0.626298       -17.0424
  19   2.0000      -0.591084       -16.0842
  20   2.0000      -0.579871       -15.7791
  21   2.0000      -0.543694       -14.7947
  22   2.0000      -0.513185       -13.9645
  23   2.0000      -0.506623       -13.7859
  24   2.0000      -0.463734       -12.6189
  25   2.0000      -0.449280       -12.2255
  26   2.0000      -0.439983       -11.9725
  27   2.0000      -0.436841       -11.8871
  28   2.0000      -0.431189       -11.7333
  29   2.0000      -0.415399       -11.3036
  30   2.0000      -0.401748       -10.9321
  31   2.0000      -0.390054       -10.6139
  32   2.0000      -0.382870       -10.4184
  33   2.0000      -0.379304       -10.3214
  34   2.0000      -0.361456        -9.8357
  35   2.0000      -0.357370        -9.7245
  36   2.0000      -0.342695        -9.3252
  37   2.0000      -0.329127        -8.9560
  38   2.0000      -0.324698        -8.8355
  39   2.0000      -0.310659        -8.4535
  40   2.0000      -0.287257        -7.8167
  41   2.0000      -0.180150        -4.9021
  42   0.0000       0.052400         1.4259
  43   0.0000       0.060062         1.6344
  44   0.0000       0.078334         2.1316
  45   0.0000       0.087094         2.3699
  46   0.0000       0.095816         2.6073

MULLIKEN ATOMIC CHARGES
-----------------------
   0 C :   -0.216510
   1 C :    0.123361
   2 C :   -0.313981
   3 C :   -0.136446
   4 C :   -0.225801
   5 C :   -0.197880
   6 H :    0.108344
   7 H :    0.113733
   8 H :    0.109318
   9 H :    0.109065
  10 H :    0.107203
  11 H :    0.106187
  12 H :    0.083498
  13 N :   -0.398549
  14 C :   -0.053317
  15 C :   -0.235892
  16 C :   -0.243477
  17 C :   -0.049560
  18 H :    0.122304
  19 H :    0.108777
  20 H :    0.125651
  21 H :    0.123974
  22 H :    0.126984
  23 H :    0.121510
  24 H :    0.120086
  25 H :    0.109390
  26 H :    0.127834
  27 H :    0.124192
Sum of atomic charges:    0.0000000

LOEWDIN ATOMIC CHARGES
----------------------
   0 C :   -0.223077
   1 C :   -0.006792
   2 C :   -0.253693
   3 C :   -0.220381
   4 C :   -0.228783
   5 C :   -0.224323
   6 H :    0.117022
   7 H :    0.119665
   8 H :    0.116170
   9 H :    0.116393
  10 H :    0.118080
  11 H :    0.114433
  12 H :    0.118606
  13 N :   -0.095516
  14 C :   -0.142459
  15 C :   -0.233969
  16 C :   -0.233404
  17 C :   -0.142196
  18 H :    0.114862
  19 H :    0.102822
  20 H :    0.123241
  21 H :    0.124511
  22 H :    0.124289
  23 H :    0.123767
  24 H :    0.113054
  25 H :    0.105094
  26 H :    0.126385
  27 H :    0.126203

  Mayer bond orders larger than 0.100000
B(  0-C ,  1-C ) :   1.0515 B(  0-C ,  5-C ) :   1.1025 B(  0-C , 26-H ) :   0.9080
B(  0-C , 27-H ) :   0.8990 B(  1-C ,  2-C ) :   1.8008 B(  1-C , 13-N ) :   1.1155
B(  2-C ,  3-C ) :   1.0363 B(  2-C , 12-H ) :   0.9245 B(  3-C ,  4-C ) :   1.1125
B(  3-C , 10-H ) :   0.9267 B(  3-C , 11-H ) :   0.9082 B(  4-C ,  5-C ) :   1.0831
B(  4-C ,  8-H ) :   0.9311 B(  4-C ,  9-H ) :   0.9331 B(  5-C ,  6-H ) :   0.9306
B(  5-C ,  7-H ) :   0.9317 B( 13-N , 14-C ) :   0.9989 B( 13-N , 17-C ) :   0.9913
B( 14-C , 15-C ) :   1.0785 B( 14-C , 24-H ) :   0.9210 B( 14-C , 25-H ) :   0.9214
B( 15-C , 16-C ) :   1.1000 B( 15-C , 22-H ) :   0.9363 B( 15-C , 23-H ) :   0.9271
B( 16-C , 17-C ) :   1.0831 B( 16-C , 20-H ) :   0.9355 B( 16-C , 21-H ) :   0.9283
B( 17-C , 18-H ) :   0.9252 B( 17-C , 19-H ) :   0.9219

Dispersion correction           -0.025438372
FINAL SINGLE POINT ENERGY      -445.184100058912

DIPOLE MOMENT
-------------

Method             : SCF
Type of density    : Electron Density
Multiplicity       :   1
Irrep              :   0
Energy             :  -445.1586616869664681 Eh
Relativity type    :
Basis              : AO
                                X                 Y                 Z
Electronic contribution:     -0.934221499       0.749114508       0.151015614
Nuclear contribution   :      0.342331497      -1.087953366      -0.177536996
                        -----------------------------------------
Total Dipole Moment    :     -0.591890002      -0.338838858      -0.026521383
                        -----------------------------------------
Magnitude (a.u.)       :      0.682531267
Magnitude (Debye)      :      1.734856608

VIBRATIONAL FREQUENCIES
-----------------------

Scaling factor for frequencies =  1.000000000  (already applied!)

     0:       0.00 cm**-1
     1:       0.00 cm**-1
     2:       0.00 cm**-1
     3:       0.00 cm**-1
     4:       0.00 cm**-1
     5:       0.00 cm**-1
     6:      58.89 cm**-1
     7:      65.60 cm**-1
     8:     139.57 cm**-1
     9:     175.38 cm**-1
    10:     184.73 cm**-1
    11:     231.16 cm**-1
    12:     269.91 cm**-1
    13:     311.16 cm**-1
    14:     342.39 cm**-1
    15:     452.32 cm**-1
    16:     467.63 cm**-1
    17:     526.07 cm**-1
    18:     542.26 cm**-1
    19:     587.33 cm**-1
    20:     713.37 cm**-1
    21:     776.39 cm**-1
    22:     797.04 cm**-1
    23:     849.53 cm**-1
    24:     874.59 cm**-1
    25:     892.85 cm**-1
    26:     902.03 cm**-1
    27:     934.57 cm**-1
    28:     948.88 cm**-1
    29:     952.07 cm**-1
    30:     954.87 cm**-1
    31:     970.59 cm**-1
    32:    1007.94 cm**-1
    33:    1019.07 cm**-1
    34:    1069.99 cm**-1
    35:    1100.11 cm**-1
    36:    1103.82 cm**-1
    37:    1115.70 cm**-1
    38:    1154.79 cm**-1
    39:    1162.29 cm**-1
    40:    1186.65 cm**-1
    41:    1209.40 cm**-1
    42:    1216.22 cm**-1
    43:    1257.35 cm**-1
    44:    1259.59 cm**-1
    45:    1274.94 cm**-1
    46:    1290.27 cm**-1
    47:    1299.10 cm**-1
    48:    1322.79 cm**-1
    49:    1345.51 cm**-1
    50:    1360.88 cm**-1
    51:    1367.13 cm**-1
    52:    1374.79 cm**-1
    53:    1388.88 cm**-1
    54:    1398.97 cm**-1
    55:    1400.17 cm**-1
    56:    1414.07 cm**-1
    57:    1458.91 cm**-1
    58:    1469.53 cm**-1
    59:    1472.09 cm**-1
    60:    1472.86 cm**-1
    61:    1481.34 cm**-1
    62:    1485.58 cm**-1
    63:    1488.97 cm**-1
    64:    1515.34 cm**-1
    65:    1529.45 cm**-1
    66:    1736.20 cm**-1
    67:    2967.22 cm**-1
    68:    2974.59 cm**-1
    69:    2983.78 cm**-1
    70:    3017.24 cm**-1
    71:    3030.56 cm**-1
    72:    3036.56 cm**-1
    73:    3040.40 cm**-1
    74:    3052.64 cm**-1
    75:    3058.77 cm**-1
    76:    3063.80 cm**-1
    77:    3080.56 cm**-1
    78:    3082.27 cm**-1
    79:    3091.59 cm**-1
    80:    3096.65 cm**-1
    81:    3125.18 cm**-1
    82:    3132.59 cm**-1
    83:    3196.69 cm**-1

IR SPECTRUM
-----------

 Mode   freq       eps      Int      T**2         TX        TY        TZ
       cm**-1   L/(mol*cm) km/mol    a.u.
----------------------------------------------------------------------------
  6:     58.89   0.000039    0.20  0.000207  ( 0.002530  0.005940 -0.012865)
  7:     65.60   0.000169    0.86  0.000805  (-0.002377  0.000313  0.028269)
  8:    139.57   0.000041    0.21  0.000091  ( 0.005901  0.001921  0.007265)
  9:    175.38   0.000208    1.05  0.000371  (-0.003164 -0.005825  0.018083)
 10:    184.73   0.000183    0.93  0.000309  ( 0.005941  0.002339  0.016392)
 11:    231.16   0.000201    1.01  0.000271  (-0.000466  0.003143 -0.016148)
 12:    269.91   0.000013    0.07  0.000015  ( 0.001536 -0.000110 -0.003596)
 13:    311.16   0.000140    0.71  0.000140  ( 0.008953  0.005502 -0.005467)
 14:    342.39   0.000063    0.32  0.000057  ( 0.002685 -0.006003 -0.003723)
 15:    452.32   0.000559    2.83  0.000386  (-0.011420 -0.015679 -0.003101)
 16:    467.63   0.000246    1.24  0.000164  ( 0.006899 -0.001979 -0.010610)
 17:    526.07   0.000050    0.25  0.000030  ( 0.002045  0.001761  0.004731)
 18:    542.26   0.000308    1.56  0.000177  (-0.007855 -0.002063 -0.010552)
 19:    587.33   0.000310    1.57  0.000165  (-0.002164  0.008390 -0.009481)
 20:    713.37   0.000128    0.65  0.000056  ( 0.003145 -0.000843  0.006741)
 21:    776.39   0.004498   22.73  0.001808  (-0.003609 -0.000748 -0.042361)
 22:    797.04   0.000422    2.13  0.000165  (-0.002537 -0.002156 -0.012408)
 23:    849.53   0.000771    3.90  0.000283  ( 0.004128 -0.006585 -0.014925)
 24:    874.59   0.000098    0.50  0.000035  (-0.002100 -0.005455  0.000934)
 25:    892.85   0.000312    1.57  0.000109  (-0.001311 -0.008998 -0.005123)
 26:    902.03   0.000302    1.52  0.000104  (-0.008488  0.002023  0.005308)
 27:    934.57   0.000150    0.76  0.000050  (-0.000199 -0.002331 -0.006678)
 28:    948.88   0.000105    0.53  0.000034  (-0.001864  0.000163 -0.005560)
 29:    952.07   0.000481    2.43  0.000158  ( 0.010378 -0.007052  0.000474)
 30:    954.87   0.000184    0.93  0.000060  ( 0.000449  0.006381  0.004371)
 31:    970.59   0.000377    1.91  0.000121  (-0.002738  0.008090 -0.006958)
 32:   1007.94   0.000197    0.99  0.000061  ( 0.000532  0.007688 -0.001237)
 33:   1019.07   0.001332    6.73  0.000408  (-0.017867 -0.008322 -0.004410)
 34:   1069.99   0.000113    0.57  0.000033  (-0.005004 -0.002424  0.001441)
 35:   1100.11   0.000370    1.87  0.000105  ( 0.007601  0.006405  0.002459)
 36:   1103.82   0.000210    1.06  0.000059  ( 0.006046  0.002779 -0.003889)
 37:   1115.70   0.000683    3.45  0.000191  ( 0.012184  0.006444  0.001033)
 38:   1154.79   0.001161    5.87  0.000314  ( 0.016753  0.004924 -0.002970)
 39:   1162.29   0.000605    3.06  0.000163  (-0.008144 -0.006409  0.007425)
 40:   1186.65   0.001066    5.39  0.000280  (-0.005947 -0.014393 -0.006154)
 41:   1209.40   0.000678    3.43  0.000175  (-0.012524 -0.003248  0.002737)
 42:   1216.22   0.000274    1.38  0.000070  ( 0.001500  0.007656 -0.003057)
 43:   1257.35   0.001252    6.33  0.000311  (-0.008438 -0.014783  0.004578)
 44:   1259.59   0.001972    9.96  0.000489  ( 0.020651 -0.007704  0.001638)
 45:   1274.94   0.002259   11.41  0.000553  ( 0.022830  0.005626  0.000000)
 46:   1290.27   0.006037   30.51  0.001460  (-0.006475  0.037528 -0.003123)
 47:   1299.10   0.001196    6.04  0.000287  (-0.009799 -0.012230  0.006460)
 48:   1322.79   0.000031    0.16  0.000007  (-0.000002 -0.002329 -0.001388)
 49:   1345.51   0.002945   14.88  0.000683  ( 0.012959  0.022576 -0.002310)
 50:   1360.88   0.000878    4.44  0.000201  (-0.014180  0.000444  0.000260)
 51:   1367.13   0.001564    7.90  0.000357  (-0.018892  0.000127 -0.000088)
 52:   1374.79   0.002100   10.62  0.000477  ( 0.021202  0.005224 -0.000046)
 53:   1388.88   0.004769   24.10  0.001072  ( 0.032597  0.002756  0.001205)
 54:   1398.97   0.002788   14.09  0.000622  (-0.020828 -0.013718  0.000142)
 55:   1400.17   0.000974    4.92  0.000217  ( 0.014498  0.002122 -0.001564)
 56:   1414.07   0.005914   29.89  0.001305  (-0.027768 -0.023094  0.000908)
 57:   1458.91   0.000466    2.36  0.000100  (-0.009298 -0.003579 -0.000655)
 58:   1469.53   0.006635   33.53  0.001409  (-0.033103 -0.003125  0.017416)
 59:   1472.09   0.004466   22.57  0.000947  ( 0.027305  0.012410 -0.006863)
 60:   1472.86   0.001001    5.06  0.000212  ( 0.000362  0.011263  0.009228)
 61:   1481.34   0.034592  174.81  0.007287  ( 0.084428  0.009791  0.007947)
 62:   1485.58   0.000959    4.85  0.000201  ( 0.013566  0.000071  0.004175)
 63:   1488.97   0.001651    8.34  0.000346  (-0.017569 -0.006100  0.000198)
 64:   1515.34   0.000077    0.39  0.000016  (-0.000424 -0.003944 -0.000397)
 65:   1529.45   0.002806   14.18  0.000573  ( 0.023299  0.005316 -0.001193)
 66:   1736.20   0.036081  182.34  0.006485  ( 0.071232  0.037558 -0.000778)
 67:   2967.22   0.022032  111.34  0.002317  ( 0.007176  0.040161 -0.025549)
 68:   2974.59   0.004588   23.19  0.000481  ( 0.016647 -0.009556  0.010625)
 69:   2983.78   0.012150   61.40  0.001271  ( 0.023685  0.021896  0.015177)
 70:   3017.24   0.004437   22.42  0.000459  ( 0.013327  0.015291  0.006893)
 71:   3030.56   0.003849   19.45  0.000396  ( 0.014138 -0.010496 -0.009288)
 72:   3036.56   0.004310   21.78  0.000443  (-0.009517  0.009413 -0.016240)
 73:   3040.40   0.003837   19.39  0.000394  (-0.003064 -0.010348 -0.016655)
 74:   3052.64   0.009734   49.19  0.000995  ( 0.015558  0.016226 -0.022131)
 75:   3058.77   0.002682   13.55  0.000274  (-0.016163  0.001323 -0.003253)
 76:   3063.80   0.006649   33.60  0.000677  (-0.010434  0.009553  0.021843)
 77:   3080.56   0.007240   36.59  0.000733  ( 0.002016  0.016513  0.021370)
 78:   3082.27   0.004018   20.31  0.000407  ( 0.005009  0.017135 -0.009387)
 79:   3091.59   0.009520   48.11  0.000961  (-0.029266  0.010045 -0.001883)
 80:   3096.65   0.008033   40.59  0.000809  (-0.005154 -0.014902 -0.023682)
 81:   3125.18   0.004961   25.07  0.000495  (-0.022053 -0.002694  0.001349)
 82:   3132.59   0.005497   27.78  0.000548  (-0.000468  0.014491 -0.018368)
 83:   3196.69   0.003948   19.95  0.000385  ( 0.016723 -0.010279 -0.000325)

--------------------------
THERMOCHEMISTRY AT 298.15K
--------------------------

Temperature         ...   298.15 K
Pressure            ...     1.00 atm
Total Mass          ...   151.25 AMU
Quasi RRHO          ...     True
Cut-Off Frequency   ...     1.00 cm^-1

Throughout the following assumptions are being made:
  (1) The electronic state is orbitally nondegenerate
  (2) There are no thermally accessible electronically excited states
  (3) Hindered rotations indicated by low frequency modes are not
      treated as such but are treated as vibrations and this may
      cause some error
  (4) All equations used are the standard statistical mechanics
      equations for an ideal gas
  (5) All vibrations are strictly harmonic

freq.      58.89  E(vib)   ...       0.51
freq.      65.60  E(vib)   ...       0.50
freq.     139.57  E(vib)   ...       0.42
freq.     175.38  E(vib)   ...       0.38
freq.     184.73  E(vib)   ...       0.37
freq.     231.16  E(vib)   ...       0.32
freq.     269.91  E(vib)   ...       0.29
freq.     311.16  E(vib)   ...       0.26
freq.     342.39  E(vib)   ...       0.23
freq.     452.32  E(vib)   ...       0.16
freq.     467.63  E(vib)   ...       0.16
freq.     526.07  E(vib)   ...       0.13
freq.     542.26  E(vib)   ...       0.12
freq.     587.33  E(vib)   ...       0.10
freq.     713.37  E(vib)   ...       0.07
freq.     776.39  E(vib)   ...       0.05
freq.     797.04  E(vib)   ...       0.05
freq.     849.53  E(vib)   ...       0.04
freq.     874.59  E(vib)   ...       0.04
freq.     892.85  E(vib)   ...       0.03
freq.     902.03  E(vib)   ...       0.03
freq.     934.57  E(vib)   ...       0.03
freq.     948.88  E(vib)   ...       0.03
freq.     952.07  E(vib)   ...       0.03
freq.     954.87  E(vib)   ...       0.03
freq.     970.59  E(vib)   ...       0.03
freq.    1007.94  E(vib)   ...       0.02
freq.    1019.07  E(vib)   ...       0.02
freq.    1069.99  E(vib)   ...       0.02
freq.    1100.11  E(vib)   ...       0.02
freq.    1103.82  E(vib)   ...       0.02
freq.    1115.70  E(vib)   ...       0.01
freq.    1154.79  E(vib)   ...       0.01
freq.    1162.29  E(vib)   ...       0.01
freq.    1186.65  E(vib)   ...       0.01
freq.    1209.40  E(vib)   ...       0.01
freq.    1216.22  E(vib)   ...       0.01
freq.    1257.35  E(vib)   ...       0.01
freq.    1259.59  E(vib)   ...       0.01
freq.    1274.94  E(vib)   ...       0.01
freq.    1290.27  E(vib)   ...       0.01
freq.    1299.10  E(vib)   ...       0.01
freq.    1322.79  E(vib)   ...       0.01
freq.    1345.51  E(vib)   ...       0.01
freq.    1360.88  E(vib)   ...       0.01
freq.    1367.13  E(vib)   ...       0.01
freq.    1374.79  E(vib)   ...       0.01
freq.    1388.88  E(vib)   ...       0.00
freq.    1398.97  E(vib)   ...       0.00
freq.    1400.17  E(vib)   ...       0.00
freq.    1414.07  E(vib)   ...       0.00
freq.    1458.91  E(vib)   ...       0.00
freq.    1469.53  E(vib)   ...       0.00
freq.    1472.09  E(vib)   ...       0.00
freq.    1472.86  E(vib)   ...       0.00
freq.    1481.34  E(vib)   ...       0.00
freq.    1485.58  E(vib)   ...       0.00
freq.    1488.97  E(vib)   ...       0.00
freq.    1515.34  E(vib)   ...       0.00
freq.    1529.45  E(vib)   ...       0.00
freq.    1736.20  E(vib)   ...       0.00
freq.    2967.22  E(vib)   ...       0.00
freq.    2974.59  E(vib)   ...       0.00
freq.    2983.78  E(vib)   ...       0.00
freq.    3017.24  E(vib)   ...       0.00
freq.    3030.56  E(vib)   ...       0.00
freq.    3036.56  E(vib)   ...       0.00
freq.    3040.40  E(vib)   ...       0.00
freq.    3052.64  E(vib)   ...       0.00
freq.    3058.77  E(vib)   ...       0.00
freq.    3063.80  E(vib)   ...       0.00
freq.    3080.56  E(vib)   ...       0.00
freq.    3082.27  E(vib)   ...       0.00
freq.    3091.59  E(vib)   ...       0.00
freq.    3096.65  E(vib)   ...       0.00
freq.    3125.18  E(vib)   ...       0.00
freq.    3132.59  E(vib)   ...       0.00
freq.    3196.69  E(vib)   ...       0.00

------------
INNER ENERGY
------------

The inner energy is: U= E(el) + E(ZPE) + E(vib) + E(rot) + E(trans)
    E(el)   - is the total energy from the electronic structure calculation
              = E(kin-el) + E(nuc-el) + E(el-el) + E(nuc-nuc)
    E(ZPE)  - the the zero temperature vibrational energy from the frequency calculation
    E(vib)  - the the finite temperature correction to E(ZPE) due to population
              of excited vibrational states
    E(rot)  - is the rotational thermal energy
    E(trans)- is the translational thermal energy

Summary of contributions to the inner energy U:
Electronic energy                ...   -445.18410006 Eh
Zero point energy                ...      0.25780421 Eh     161.77 kcal/mol
Thermal vibrational correction   ...      0.00746640 Eh       4.69 kcal/mol
Thermal rotational correction    ...      0.00141627 Eh       0.89 kcal/mol
Thermal translational correction ...      0.00141627 Eh       0.89 kcal/mol
-----------------------------------------------------------------------
Total thermal energy                   -444.91599690 Eh

Summary of corrections to the electronic energy:
(perhaps to be used in another calculation)
Total thermal correction                  0.01029894 Eh       6.46 kcal/mol
Non-thermal (ZPE) correction              0.25780421 Eh     161.77 kcal/mol
-----------------------------------------------------------------------
Total correction                          0.26810315 Eh     168.24 kcal/mol

--------
ENTHALPY
--------

The enthalpy is H = U + kB*T
                kB is Boltzmann's constant
Total thermal energy              ...   -444.91599690 Eh
Thermal Enthalpy correction       ...      0.00094421 Eh       0.59 kcal/mol
-----------------------------------------------------------------------
Total Enthalpy                    ...   -444.91505270 Eh

Note: Only C1 symmetry has been detected, increase convergence thresholds
      if your molecule has a higher symmetry. Symmetry factor of 1.0 is
      used for the rotational entropy correction.

Note: Rotational entropy computed according to Herzberg
Infrared and Raman Spectra, Chapter V,1, Van Nostrand Reinhold, 1945
Point Group:  C1, Symmetry Number:   1
Rotational constants in cm-1:     0.091846     0.021037     0.017897

Vibrational entropy computed according to the QRRHO of S. Grimme
Chem.Eur.J. 2012 18 9955 using a reference frequency of 100.0 cm-1

-------
ENTROPY
-------

The entropy contributions are T*S = T*(S(el)+S(vib)+S(rot)+S(trans))
     S(el)   - electronic entropy

                             ****ORCA TERMINATED NORMALLY****
TOTAL RUN TIME: 0 days 0 hours 15 minutes 26 seconds 842 msec
