                         Program Version 6.0.0  -   RELEASE  -
|  1> !TPSSh aug-cc-pVTZ d3 TightSCF SlowConv RIJCOSX defgrid2
|  2>
|  3> %pal
|  4> nprocs 4
|  5> end
|  6>
|  7> %scf
|  8> MaxIter 1500
|  9> end
| 10>
| 11> %maxcore 3000
| 12>
| 13> !CPCM
| 14> %cpcm smd true
| 15> SMDsolvent "MeCN"
| 16> surfacetype gepol_ses
| 17> rsolv 2.19
| 18> end
| 19>
| 20> * xyz 0 2
| 21> S          -0.00010950333410      1.33232152061846      0.00000284685572
| 22> C          -1.36367602339461      0.23464932550616     -0.00507122495906
| 23> C          -2.63111207479134      0.80918677441119     -0.00931514148930
| 24> C          -3.79749598688692      0.01748913706240     -0.01353133573099
| 25> C          -3.62690722369362     -1.39108123583356     -0.01295952620618
| 26> C          -2.36711161265690     -1.94934818919206     -0.00874256384629
| 27> H          -2.23684953206305     -3.03459019141420     -0.00838133626109
| 28> C          -1.17821016281749     -1.17668732648083     -0.00472311773149
| 29> N          -0.00002243259599     -1.83446497066754     -0.00098097198001
| 30> C           1.17812817196274     -1.17662234567149      0.00321348810966
| 31> C           2.36706725678156     -1.94922452722425      0.00667750909652
| 32> C           3.62683749655594     -1.39090083721577      0.01126100122058
| 33> C           3.79735129127031      0.01767608816689      0.01293153169759
| 34> C           2.63092897415049      0.80931688655999      0.00908647542932
| 35> C           1.36351983422924      0.23472394637557      0.00444992884257
| 36> H           2.70292817680075      1.89826895685548      0.00952338683142
| 37> N           5.04756390584320      0.58778935524973      0.01788863149424
| 38> C           5.18172091093512      2.01927291145544      0.01839451021747
| 39> H           4.72362917020845      2.48089047963546     -0.87882697554764
| 40> H           4.71362444681400      2.48052031071610      0.91057955441826
| 41> H           6.24845927057729      2.28645848294775      0.02468300648574
| 42> C           6.21890311032700     -0.24765571266402      0.01987377959494
| 43> H           7.11746405207368      0.38638280457377      0.02575541170059
| 44> H           6.26272829635460     -0.90187803580692      0.91268866293187
| 45> H           6.27030724212294     -0.89602611228501     -0.87693708029874
| 46> H           4.49368813972706     -2.05282067647445      0.01344982462292
| 47> H           2.23685254993858     -3.03447155031151      0.00547512817034
| 48> H          -4.49372906017109     -2.05303540820711     -0.01582821380380
| 49> N          -5.04773346330895      0.58755010330840     -0.01787016769593
| 50> C          -6.21904670194275     -0.24792774805618     -0.02103570915344
| 51> H          -6.26948350136630     -0.89843815146211      0.87422819476414
| 52> H          -6.26381702737160     -0.90001046584191     -0.91541895496807
| 53> H          -7.11762903933965      0.38609970182385     -0.02430714598305
| 54> C          -5.18193217827922      2.01902912759794     -0.01996728409317
| 55> H          -4.72352139465997      2.48160383072144      0.87657566790498
| 56> H          -4.71418178558910      2.47935235497991     -0.91283316827598
| 57> H          -6.24867837130277      2.28618639267493     -0.02606269937327
| 58> H          -2.70315182110753      1.89814199356804     -0.00903802299134
| 59> *
| 60>
| 61>                          ****END OF INPUT****

CARTESIAN COORDINATES (ANGSTROEM)
---------------------------------
  S     -0.000110    1.332322    0.000003
  C     -1.363676    0.234649   -0.005071
  C     -2.631112    0.809187   -0.009315
  C     -3.797496    0.017489   -0.013531
  C     -3.626907   -1.391081   -0.012960
  C     -2.367112   -1.949348   -0.008743
  H     -2.236850   -3.034590   -0.008381
  C     -1.178210   -1.176687   -0.004723
  N     -0.000022   -1.834465   -0.000981
  C      1.178128   -1.176622    0.003213
  C      2.367067   -1.949225    0.006678
  C      3.626837   -1.390901    0.011261
  C      3.797351    0.017676    0.012932
  C      2.630929    0.809317    0.009086
  C      1.363520    0.234724    0.004450
  H      2.702928    1.898269    0.009523
  N      5.047564    0.587789    0.017889
  C      5.181721    2.019273    0.018395
  H      4.723629    2.480890   -0.878827
  H      4.713624    2.480520    0.910580
  H      6.248459    2.286458    0.024683
  C      6.218903   -0.247656    0.019874
  H      7.117464    0.386383    0.025755
  H      6.262728   -0.901878    0.912689
  H      6.270307   -0.896026   -0.876937
  H      4.493688   -2.052821    0.013450
  H      2.236853   -3.034472    0.005475
  H     -4.493729   -2.053035   -0.015828
  N     -5.047733    0.587550   -0.017870
  C     -6.219047   -0.247928   -0.021036
  H     -6.269484   -0.898438    0.874228
  H     -6.263817   -0.900010   -0.915419
  H     -7.117629    0.386100   -0.024307
  C     -5.181932    2.019029   -0.019967
  H     -4.723521    2.481604    0.876576
  H     -4.714182    2.479352   -0.912833
  H     -6.248678    2.286186   -0.026063
  H     -2.703152    1.898142   -0.009038

 Total Charge           Charge          ....    0
 Multiplicity           Mult            ....    2
 Number of Electrons    NEL             ....  151
 Basis Dimension        Dim             .... 1338

ORBITAL ENERGIES
----------------
                 SPIN UP ORBITALS
  NO   OCC          E(Eh)            E(eV)
   0   1.0000     -88.764236     -2415.3977
   1   1.0000     -14.276231      -388.4760
   2   1.0000     -14.276224      -388.4758
   3   1.0000     -14.235552      -387.3691
   4   1.0000     -10.159357      -276.4502
   5   1.0000     -10.159345      -276.4498
   6   1.0000     -10.155106      -276.3345
   7   1.0000     -10.155098      -276.3343
   8   1.0000     -10.144677      -276.0507
   9   1.0000     -10.144674      -276.0506
  10   1.0000     -10.138145      -275.8730
  11   1.0000     -10.138116      -275.8722
  12   1.0000     -10.138098      -275.8717
  13   1.0000     -10.138089      -275.8714
  14   1.0000     -10.115874      -275.2669
  15   1.0000     -10.115841      -275.2660
  16   1.0000     -10.115227      -275.2493
  17   1.0000     -10.115221      -275.2492
  18   1.0000     -10.113181      -275.1937
  19   1.0000     -10.113174      -275.1935
  20   1.0000      -7.890174      -214.7026
  21   1.0000      -5.841027      -158.9424
  22   1.0000      -5.837216      -158.8387
  23   1.0000      -5.833967      -158.7503
  24   1.0000      -0.936427       -25.4815
  25   1.0000      -0.935914       -25.4675
  26   1.0000      -0.915233       -24.9048
  27   1.0000      -0.833201       -22.6725
  28   1.0000      -0.823407       -22.4060
  29   1.0000      -0.784097       -21.3364
  30   1.0000      -0.740037       -20.1374
  31   1.0000      -0.734192       -19.9784
  32   1.0000      -0.715725       -19.4759
  33   1.0000      -0.699778       -19.0419
  34   1.0000      -0.698369       -19.0036
  35   1.0000      -0.665264       -18.1028
  36   1.0000      -0.647821       -17.6281
  37   1.0000      -0.614799       -16.7295
  38   1.0000      -0.586831       -15.9685
  39   1.0000      -0.586433       -15.9577
  40   1.0000      -0.566990       -15.4286
  41   1.0000      -0.524916       -14.2837
  42   1.0000      -0.522104       -14.2072
  43   1.0000      -0.493323       -13.4240
  44   1.0000      -0.483123       -13.1464
  45   1.0000      -0.480407       -13.0725
  46   1.0000      -0.457993       -12.4626
  47   1.0000      -0.447769       -12.1844
  48   1.0000      -0.447280       -12.1711
  49   1.0000      -0.430969       -11.7273
  50   1.0000      -0.422282       -11.4909
  51   1.0000      -0.417833       -11.3698
  52   1.0000      -0.409164       -11.1339
  53   1.0000      -0.408538       -11.1169
  54   1.0000      -0.398494       -10.8436
  55   1.0000      -0.397737       -10.8230
  56   1.0000      -0.382080       -10.3969
  57   1.0000      -0.382071       -10.3967
  58   1.0000      -0.376311       -10.2399
  59   1.0000      -0.375412       -10.2155
  60   1.0000      -0.364748        -9.9253
  61   1.0000      -0.363876        -9.9016
  62   1.0000      -0.357452        -9.7268
  63   1.0000      -0.352965        -9.6047
  64   1.0000      -0.347166        -9.4469
  65   1.0000      -0.330439        -8.9917
  66   1.0000      -0.322733        -8.7820
  67   1.0000      -0.317554        -8.6411
  68   1.0000      -0.317327        -8.6349
  69   1.0000      -0.283434        -7.7126
  70   1.0000      -0.258707        -7.0398
  71   1.0000      -0.244484        -6.6527
  72   1.0000      -0.240643        -6.5482
  73   1.0000      -0.204460        -5.5636
  74   1.0000      -0.189079        -5.1451
  75   1.0000      -0.139677        -3.8008
  76   0.0000      -0.035267        -0.9597
  77   0.0000      -0.031128        -0.8470
  78   0.0000      -0.014657        -0.3988
  79   0.0000      -0.007970        -0.2169
  80   0.0000      -0.004592        -0.1250

                 SPIN DOWN ORBITALS
  NO   OCC          E(Eh)            E(eV)
   0   1.0000     -88.763688     -2415.3827
   1   1.0000     -14.274224      -388.4214
   2   1.0000     -14.274217      -388.4212
   3   1.0000     -14.227316      -387.1450
   4   1.0000     -10.157918      -276.4110
   5   1.0000     -10.157906      -276.4107
   6   1.0000     -10.153045      -276.2784
   7   1.0000     -10.153038      -276.2782
   8   1.0000     -10.145573      -276.0751
   9   1.0000     -10.145570      -276.0750
  10   1.0000     -10.138274      -275.8765
  11   1.0000     -10.138245      -275.8757
  12   1.0000     -10.138225      -275.8751
  13   1.0000     -10.138216      -275.8749
  14   1.0000     -10.116738      -275.2904
  15   1.0000     -10.116704      -275.2895
  16   1.0000     -10.113828      -275.2113
  17   1.0000     -10.113822      -275.2111
  18   1.0000     -10.113242      -275.1953
  19   1.0000     -10.113235      -275.1951
  20   1.0000      -7.889666      -214.6887
  21   1.0000      -5.840784      -158.9358
  22   1.0000      -5.837009      -158.8331
  23   1.0000      -5.832122      -158.7001
  24   1.0000      -0.933350       -25.3977
  25   1.0000      -0.932926       -25.3862
  26   1.0000      -0.906715       -24.6730
  27   1.0000      -0.830878       -22.6094
  28   1.0000      -0.818045       -22.2601
  29   1.0000      -0.781824       -21.2745
  30   1.0000      -0.738988       -20.1089
  31   1.0000      -0.731976       -19.9181
  32   1.0000      -0.714559       -19.4441
  33   1.0000      -0.699198       -19.0261
  34   1.0000      -0.696280       -18.9468
  35   1.0000      -0.664018       -18.0689
  36   1.0000      -0.647817       -17.6280
  37   1.0000      -0.611609       -16.6427
  38   1.0000      -0.585198       -15.9240
  39   1.0000      -0.584082       -15.8937
  40   1.0000      -0.565224       -15.3805
  41   1.0000      -0.523070       -14.2335
  42   1.0000      -0.520991       -14.1769
  43   1.0000      -0.491908       -13.3855
  44   1.0000      -0.481563       -13.1040
  45   1.0000      -0.479714       -13.0537
  46   1.0000      -0.457295       -12.4436
  47   1.0000      -0.443527       -12.0690
  48   1.0000      -0.443165       -12.0591
  49   1.0000      -0.430176       -11.7057
  50   1.0000      -0.421315       -11.4646
  51   1.0000      -0.416966       -11.3462
  52   1.0000      -0.407986       -11.1019
  53   1.0000      -0.398005       -10.8303
  54   1.0000      -0.397281       -10.8106
  55   1.0000      -0.396890       -10.7999
  56   1.0000      -0.381438       -10.3795
  57   1.0000      -0.381424       -10.3791
  58   1.0000      -0.375873       -10.2280
  59   1.0000      -0.374754       -10.1976
  60   1.0000      -0.363856        -9.9010
  61   1.0000      -0.358166        -9.7462
  62   1.0000      -0.356829        -9.7098
  63   1.0000      -0.352189        -9.5835
  64   1.0000      -0.346326        -9.4240
  65   1.0000      -0.320503        -8.7213
  66   1.0000      -0.317009        -8.6263
  67   1.0000      -0.316209        -8.6045
  68   1.0000      -0.308185        -8.3861
  69   1.0000      -0.275101        -7.4859
  70   1.0000      -0.253729        -6.9043
  71   1.0000      -0.237897        -6.4735
  72   1.0000      -0.227324        -6.1858
  73   1.0000      -0.198388        -5.3984
  74   1.0000      -0.181594        -4.9414
  75   0.0000      -0.099039        -2.6950
  76   0.0000      -0.029479        -0.8022
  77   0.0000      -0.023434        -0.6377
  78   0.0000      -0.008524        -0.2320
  79   0.0000      -0.007276        -0.1980

MULLIKEN ATOMIC CHARGES AND SPIN POPULATIONS
--------------------------------------------
   0 S :   -0.187755    0.128433
   1 C :    0.616278    0.109130
   2 C :   -0.753004   -0.071923
   3 C :    1.139566    0.119817
   4 C :    0.160555   -0.036029
   5 C :   -0.709147    0.068029
   6 H :    0.253028    0.003741
   7 C :    0.523154    0.002804
   8 N :   -1.193080    0.330019
   9 C :    0.480719    0.002163
  10 C :   -0.714823    0.068179
  11 C :    0.197164   -0.036316
  12 C :    1.165561    0.119895
  13 C :   -0.811786   -0.071758
  14 C :    0.610891    0.109028
  15 H :   -0.171479    0.003113
  16 N :   -0.295038    0.073949
  17 C :   -0.476285   -0.014285
  18 H :    0.193381    0.005502
  19 H :    0.193615    0.005492
  20 H :    0.006249    0.001104
  21 C :   -0.446786   -0.013618
  22 H :    0.019544    0.001368
  23 H :    0.165092    0.004977
  24 H :    0.166701    0.005026
  25 H :    0.125455    0.002867
  26 H :    0.255642    0.003793
  27 H :    0.119722    0.002837
  28 N :   -0.294830    0.074007
  29 C :   -0.437956   -0.013625
  30 H :    0.164857    0.005027
  31 H :    0.165254    0.004983
  32 H :    0.023207    0.001362
  33 C :   -0.474820   -0.014252
  34 H :    0.193404    0.005499
  35 H :    0.191926    0.005465
  36 H :    0.006327    0.001107
  37 H :   -0.170502    0.003089
Sum of atomic charges         :    0.0000000

LOEWDIN ATOMIC CHARGES AND SPIN POPULATIONS
-------------------------------------------
   0 S :    1.318377    0.098539
   1 C :   -0.485200    0.064165
   2 C :    0.130383    0.002783
   3 C :   -0.224737    0.048055
   4 C :    0.216447    0.021045
   5 C :    0.186643    0.046356
   6 H :   -0.176472    0.006889
   7 C :   -0.397636    0.055984
   8 N :    0.357193    0.236281
   9 C :   -0.397643    0.055978
  10 C :    0.186642    0.046348
  11 C :    0.216467    0.021036
  12 C :   -0.224719    0.048047
  13 C :    0.130325    0.002782
  14 C :   -0.485229    0.064172
  15 H :   -0.214065   -0.004243
  16 N :    0.241408    0.062460
  17 C :    0.479906    0.009662
  18 H :   -0.140226    0.002649
  19 H :   -0.140507    0.002632
  20 H :   -0.159559    0.000079
  21 C :    0.480008    0.009336
  22 H :   -0.160199    0.000035
  23 H :   -0.141153    0.002561
  24 H :   -0.140716    0.002576
  25 H :   -0.192139   -0.000435
  26 H :   -0.176468    0.006889
  27 H :   -0.192142   -0.000434
  28 N :    0.241418    0.062477
  29 C :    0.480010    0.009339
  30 H :   -0.140873    0.002568
  31 H :   -0.140983    0.002571
  32 H :   -0.160217    0.000035
  33 C :    0.479920    0.009664
  34 H :   -0.140308    0.002644
  35 H :   -0.140443    0.002637
  36 H :   -0.159530    0.000079
  37 H :   -0.213983   -0.004243

  Mayer bond orders larger than 0.100000
B(  0-S ,  2-C ) :   0.2543 B(  0-S ,  7-C ) :   0.1551 B(  0-S ,  8-N ) :  -0.1527
B(  0-S ,  9-C ) :   0.1600 B(  0-S , 13-C ) :   0.2530 B(  0-S , 14-C ) :   0.1191
B(  1-C ,  2-C ) :   0.6627 B(  1-C ,  4-C ) :  -0.3278 B(  1-C ,  7-C ) :   0.8009
B(  1-C ,  8-N ) :  -0.1205 B(  1-C , 13-C ) :   0.1383 B(  1-C , 14-C ) :  -0.5069
B(  1-C , 28-N ) :   0.2939 B(  1-C , 33-C ) :   0.1171 B(  1-C , 37-H ) :   0.1436
B(  2-C ,  3-C ) :   0.4591 B(  2-C ,  5-C ) :  -0.1892 B(  2-C ,  7-C ) :   0.5819
B(  2-C ,  9-C ) :  -0.1760 B(  2-C , 14-C ) :   0.1469 B(  2-C , 25-H ) :  -0.1099
B(  2-C , 28-N ) :  -0.4235 B(  2-C , 29-C ) :   0.1533 B(  2-C , 33-C ) :  -0.2074
B(  2-C , 37-H ) :   1.1757 B(  3-C ,  4-C ) :   0.7294 B(  3-C ,  5-C ) :  -0.1874
B(  3-C ,  6-H ) :   0.1306 B(  3-C ,  9-C ) :  -0.1711 B(  3-C , 29-C ) :  -0.1739
B(  3-C , 33-C ) :  -0.1780 B(  3-C , 37-H ) :  -0.1702 B(  4-C ,  5-C ) :   1.1291
B(  4-C ,  7-C ) :   0.4663 B(  4-C ,  8-N ) :   0.1160 B(  4-C , 27-H ) :   0.8906
B(  4-C , 28-N ) :  -0.5546 B(  4-C , 29-C ) :  -0.1674 B(  5-C ,  6-H ) :   0.6763
B(  5-C ,  8-N ) :   0.4916 B(  5-C ,  9-C ) :   0.2186 B(  6-H ,  7-C ) :   0.1865
B(  6-H ,  8-N ) :   0.1776 B(  6-H ,  9-C ) :  -0.1654 B(  7-C ,  8-N ) :  -0.3400
B(  7-C ,  9-C ) :   1.0205 B(  7-C , 10-C ) :   0.2259 B(  7-C , 12-C ) :  -0.1979
B(  7-C , 13-C ) :  -0.1726 B(  7-C , 26-H ) :  -0.1788 B(  7-C , 28-N ) :  -0.1880
B(  8-N ,  9-C ) :  -0.3169 B(  8-N , 10-C ) :   0.4714 B(  8-N , 11-C ) :   0.1163
B(  8-N , 14-C ) :  -0.1111 B(  8-N , 26-H ) :   0.1872 B(  9-C , 11-C ) :   0.4565
B(  9-C , 13-C ) :   0.6056 B(  9-C , 14-C ) :   0.7868 B(  9-C , 16-N ) :  -0.1814
B(  9-C , 26-H ) :   0.1913 B( 10-C , 11-C ) :   1.1302 B( 10-C , 12-C ) :  -0.2016
B( 10-C , 13-C ) :  -0.1859 B( 10-C , 26-H ) :   0.6780 B( 11-C , 12-C ) :   0.7670
B( 11-C , 14-C ) :  -0.3246 B( 11-C , 16-N ) :  -0.6227 B( 11-C , 21-C ) :  -0.1841
B( 11-C , 25-H ) :   0.8923 B( 12-C , 13-C ) :   0.4416 B( 12-C , 15-H ) :  -0.1676
B( 12-C , 17-C ) :  -0.2002 B( 12-C , 21-C ) :  -0.1681 B( 12-C , 26-H ) :   0.1276
B( 13-C , 14-C ) :   0.6754 B( 13-C , 15-H ) :   1.1717 B( 13-C , 16-N ) :  -0.3555
B( 13-C , 17-C ) :  -0.1882 B( 13-C , 21-C ) :   0.1545 B( 14-C , 15-H ) :   0.1419
B( 14-C , 16-N ) :   0.2914 B( 14-C , 17-C ) :   0.1128 B( 16-N , 17-C ) :   1.3391
B( 16-N , 20-H ) :  -0.1040 B( 16-N , 21-C ) :   1.3397 B( 17-C , 18-H ) :   0.9157
B( 17-C , 19-H ) :   0.9154 B( 17-C , 20-H ) :   1.0540 B( 21-C , 22-H ) :   1.0174
B( 21-C , 23-H ) :   0.9505 B( 21-C , 24-H ) :   0.9493 B( 28-N , 29-C ) :   1.3345
B( 28-N , 33-C ) :   1.3347 B( 28-N , 36-H ) :  -0.1028 B( 29-C , 30-H ) :   0.9505
B( 29-C , 31-H ) :   0.9510 B( 29-C , 32-H ) :   1.0112 B( 33-C , 34-H ) :   0.9159
B( 33-C , 35-H ) :   0.9161 B( 33-C , 36-H ) :   1.0540

Dispersion correction           -0.059305783
FINAL SINGLE POINT ENERGY     -1183.403577094047

DIPOLE MOMENT
-------------

Method             : SCF
Type of density    : Electron Density
Multiplicity       :   2
Irrep              :   0
Energy             : -1183.3442713107485815 Eh
Relativity type    :
Basis              : AO
                                X                 Y                 Z
Electronic contribution:     -0.000719753      -3.182407723       0.004947681
Nuclear contribution   :     -0.000087217       5.020383448      -0.005360537
                        -----------------------------------------
Total Dipole Moment    :     -0.000806969       1.837975725      -0.000412856
                        -----------------------------------------
Magnitude (a.u.)       :      1.837975948
Magnitude (Debye)      :      4.671763589

Rotational constants in cm-1:             0.035055             0.004401             0.003922
Rotational constants in MHz :          1050.925207           131.948316           117.581806

                             ****ORCA TERMINATED NORMALLY****
TOTAL RUN TIME: 0 days 0 hours 30 minutes 29 seconds 630 msec
