                         Program Version 6.0.0  -   RELEASE  -
|  1> !r2SCANh aug-cc-pVTZ d3 TightSCF SlowConv RIJCOSX defgrid2
|  2>
|  3> %pal
|  4> nprocs 4
|  5> end
|  6>
|  7> %scf
|  8> MaxIter 1500
|  9> end
| 10>
| 11> %maxcore 3000
| 12>
| 13> !CPCM
| 14> %cpcm smd true
| 15> SMDsolvent "MeCN"
| 16> surfacetype gepol_ses
| 17> rsolv 2.19
| 18> end
| 19>
| 20> * xyz 0 1
| 21> C          -1.22529066987343      0.66704743781773      0.00002168359140
| 22> C          -0.03496126853419      1.39469871106093      0.00001681573232
| 23> C           1.19034742281071      0.72763815656934      0.00000486668415
| 24> C           1.22529060623977     -0.66703623444881     -0.00000274991533
| 25> C           0.03496151907311     -1.39468785704343      0.00000348152268
| 26> C          -1.19034789437969     -0.72762723255936      0.00001493638754
| 27> H          -2.12407118413544     -1.29834756579676      0.00001940750089
| 28> H           0.06240295882327     -2.48867478107419     -0.00000153324095
| 29> H           2.18642211750805     -1.19027035399337     -0.00001108378126
| 30> H           2.12407102187395      1.29835788033297      0.00000056110263
| 31> H          -0.06240416187133      2.48868564425629      0.00002192326032
| 32> H          -2.18642146753477      1.19028329487864      0.00003019115560
| 33> *
| 34>
| 35>                          ****END OF INPUT****

CARTESIAN COORDINATES (ANGSTROEM)
---------------------------------
  C     -1.225291    0.667047    0.000022
  C     -0.034961    1.394699    0.000017
  C      1.190347    0.727638    0.000005
  C      1.225291   -0.667036   -0.000003
  C      0.034962   -1.394688    0.000003
  C     -1.190348   -0.727627    0.000015
  H     -2.124071   -1.298348    0.000019
  H      0.062403   -2.488675   -0.000002
  H      2.186422   -1.190270   -0.000011
  H      2.124071    1.298358    0.000001
  H     -0.062404    2.488686    0.000022
  H     -2.186421    1.190283    0.000030

 Total Charge           Charge          ....    0
 Multiplicity           Mult            ....    1
 Number of Electrons    NEL             ....   42
 Basis Dimension        Dim             ....  414

ORBITAL ENERGIES
----------------

  NO   OCC          E(Eh)            E(eV)
   0   2.0000     -10.161191      -276.5001
   1   2.0000     -10.160942      -276.4933
   2   2.0000     -10.160939      -276.4932
   3   2.0000     -10.160398      -276.4785
   4   2.0000     -10.160395      -276.4784
   5   2.0000     -10.160164      -276.4721
   6   2.0000      -0.855399       -23.2766
   7   2.0000      -0.744132       -20.2489
   8   2.0000      -0.744119       -20.2485
   9   2.0000      -0.595068       -16.1926
  10   2.0000      -0.595067       -16.1926
  11   2.0000      -0.510981       -13.9045
  12   2.0000      -0.445801       -12.1309
  13   2.0000      -0.435949       -11.8628
  14   2.0000      -0.406524       -11.0621
  15   2.0000      -0.406510       -11.0617
  16   2.0000      -0.366892        -9.9836
  17   2.0000      -0.327453        -8.9105
  18   2.0000      -0.327447        -8.9103
  19   2.0000      -0.253636        -6.9018
  20   2.0000      -0.253614        -6.9012
  21   0.0000      -0.025082        -0.6825
  22   0.0000      -0.025078        -0.6824
  23   0.0000       0.012268         0.3338
  24   0.0000       0.030244         0.8230
  25   0.0000       0.030250         0.8231

MULLIKEN ATOMIC CHARGES
-----------------------
   0 C :   -0.411725
   1 C :   -0.406037
   2 C :   -0.409074
   3 C :   -0.411806
   4 C :   -0.407184
   5 C :   -0.408115
   6 H :    0.407809
   7 H :    0.412984
   8 H :    0.406485
   9 H :    0.408868
  10 H :    0.413294
  11 H :    0.404500
Sum of atomic charges:    0.0000000

LOEWDIN ATOMIC CHARGES
----------------------
   0 C :    0.173650
   1 C :    0.173636
   2 C :    0.173672
   3 C :    0.173650
   4 C :    0.173635
   5 C :    0.173674
   6 H :   -0.173641
   7 H :   -0.173662
   8 H :   -0.173656
   9 H :   -0.173641
  10 H :   -0.173661
  11 H :   -0.173657

  Mayer bond orders larger than 0.100000
B(  0-C ,  1-C ) :   1.1192 B(  0-C ,  5-C ) :   1.1164 B(  0-C , 11-H ) :   0.7365
B(  1-C ,  2-C ) :   1.1189 B(  1-C , 10-H ) :   0.7229 B(  2-C ,  3-C ) :   1.1182
B(  2-C ,  9-H ) :   0.7310 B(  3-C ,  4-C ) :   1.1183 B(  3-C ,  8-H ) :   0.7337
B(  4-C ,  5-C ) :   1.1182 B(  4-C ,  7-H ) :   0.7234 B(  5-C ,  6-H ) :   0.7327

Dispersion correction           -0.003122775
FINAL SINGLE POINT ENERGY      -232.189371087020

DIPOLE MOMENT
-------------

Method             : SCF
Type of density    : Electron Density
Multiplicity       :   1
Irrep              :   0
Energy             :  -232.1862483116558451 Eh
Relativity type    :
Basis              : AO
                                X                 Y                 Z
Electronic contribution:     -0.000001661      -0.000000806      -0.000002086
Nuclear contribution   :     -0.000000373       0.000000984       0.000000374
                        -----------------------------------------
Total Dipole Moment    :     -0.000002034       0.000000178      -0.000001712
                        -----------------------------------------
Magnitude (a.u.)       :      0.000002664
Magnitude (Debye)      :      0.000006771

Rotational constants in cm-1:             0.189685             0.189678             0.094841
Rotational constants in MHz :          5686.605662          5686.389794          2843.248863

                             ****ORCA TERMINATED NORMALLY****
TOTAL RUN TIME: 0 days 0 hours 2 minutes 9 seconds 920 msec
