                         Program Version 6.0.0  -   RELEASE  -
|  1> !r2SCAN freq aug-cc-pVTZ d3 TightSCF SlowConv RIJCOSX defgrid2
|  2>
|  3> %pal
|  4> nprocs 12
|  5> end
|  6>
|  7> %scf
|  8> MaxIter 1500
|  9> end
| 10>
| 11> %maxcore 5000
| 12>
| 13> !CPCM
| 14> %cpcm smd true
| 15> SMDsolvent "MeCN"
| 16> surfacetype gepol_ses
| 17> rsolv 2.19
| 18> end
| 19>
| 20> * xyz 0 1
| 21> C           1.34121084398131     -0.00495315855238     -0.21343008115502
| 22> C           0.75343610268487      1.26202831590883     -0.16128874181793
| 23> C          -0.62202958835441      1.38921074816955     -0.06874000958312
| 24> C          -1.43926773469120      0.25586738599390     -0.02937119913666
| 25> C          -0.85718408243280     -1.01089159181074     -0.08362024351829
| 26> C           0.52686226921836     -1.13308789338531     -0.17407176430689
| 27> H           0.96403149691651     -2.12445996698842     -0.21325950108878
| 28> H          -1.46093973833795     -1.90701525564029     -0.05520208490864
| 29> O          -2.77579553338646      0.48556201978673      0.06109400224257
| 30> C          -3.63224563995410     -0.65561558446399      0.10051259788539
| 31> H          -4.64460483795497     -0.26439694902814      0.16766910987232
| 32> H          -3.53151588779794     -1.25455104242146     -0.80836000046022
| 33> H          -3.42189632442696     -1.27571225802905      0.97594748204140
| 34> H          -1.07896152509718      2.37087660662928     -0.02652147855490
| 35> H           1.36925621525023      2.15316487393921     -0.19328569628107
| 36> S           3.09927602620398     -0.23796720431534     -0.33361976007509
| 37> H           3.43546563817872      1.06450675420762     -0.27904293115507
| 38> *
| 39>
| 40>                          ****END OF INPUT****

CARTESIAN COORDINATES (ANGSTROEM)
---------------------------------
  C      1.341211   -0.004953   -0.213430
  C      0.753436    1.262028   -0.161289
  C     -0.622030    1.389211   -0.068740
  C     -1.439268    0.255867   -0.029371
  C     -0.857184   -1.010892   -0.083620
  C      0.526862   -1.133088   -0.174072
  H      0.964031   -2.124460   -0.213260
  H     -1.460940   -1.907015   -0.055202
  O     -2.775796    0.485562    0.061094
  C     -3.632246   -0.655616    0.100513
  H     -4.644605   -0.264397    0.167669
  H     -3.531516   -1.254551   -0.808360
  H     -3.421896   -1.275712    0.975947
  H     -1.078962    2.370877   -0.026521
  H      1.369256    2.153165   -0.193286
  S      3.099276   -0.237967   -0.333620
  H      3.435466    1.064507   -0.279043

 Total Charge           Charge          ....    0
 Multiplicity           Mult            ....    1
 Number of Electrons    NEL             ....   74
 Basis Dimension        Dim             ....  602

ORBITAL ENERGIES
----------------

  NO   OCC          E(Eh)            E(eV)
   0   2.0000     -88.570214     -2410.1180
   1   2.0000     -18.990073      -516.7462
   2   2.0000     -10.098498      -274.7941
   3   2.0000     -10.075332      -274.1637
   4   2.0000     -10.074747      -274.1478
   5   2.0000     -10.045736      -273.3584
   6   2.0000     -10.045071      -273.3403
   7   2.0000     -10.039962      -273.2013
   8   2.0000     -10.039093      -273.1776
   9   2.0000      -7.863907      -213.9878
  10   2.0000      -5.810353      -158.1077
  11   2.0000      -5.806449      -158.0015
  12   2.0000      -5.801937      -157.8787
  13   2.0000      -1.031341       -28.0642
  14   2.0000      -0.833408       -22.6782
  15   2.0000      -0.754255       -20.5243
  16   2.0000      -0.723943       -19.6995
  17   2.0000      -0.688989       -18.7483
  18   2.0000      -0.643563       -17.5123
  19   2.0000      -0.585238       -15.9251
  20   2.0000      -0.553364       -15.0578
  21   2.0000      -0.501463       -13.6455
  22   2.0000      -0.462393       -12.5824
  23   2.0000      -0.438593       -11.9347
  24   2.0000      -0.431344       -11.7375
  25   2.0000      -0.415208       -11.2984
  26   2.0000      -0.394996       -10.7484
  27   2.0000      -0.386113       -10.5067
  28   2.0000      -0.363472        -9.8906
  29   2.0000      -0.361230        -9.8296
  30   2.0000      -0.329959        -8.9786
  31   2.0000      -0.315473        -8.5845
  32   2.0000      -0.312604        -8.5064
  33   2.0000      -0.296700        -8.0736
  34   2.0000      -0.251875        -6.8539
  35   2.0000      -0.244983        -6.6663
  36   2.0000      -0.187090        -5.0910
  37   0.0000      -0.043684        -1.1887
  38   0.0000      -0.025029        -0.6811
  39   0.0000      -0.010440        -0.2841
  40   0.0000       0.010039         0.2732
  41   0.0000       0.015474         0.4211

MULLIKEN ATOMIC CHARGES
-----------------------
   0 C :    0.958488
   1 C :   -0.715487
   2 C :   -0.905133
   3 C :    1.189376
   4 C :   -0.260959
   5 C :   -0.976867
   6 H :    0.387838
   7 H :    0.434822
   8 O :   -0.666652
   9 C :   -0.646170
  10 H :    0.241532
  11 H :    0.257315
  12 H :    0.256637
  13 H :    0.511792
  14 H :    0.262565
  15 S :   -0.454806
  16 H :    0.125709
Sum of atomic charges:   -0.0000000

LOEWDIN ATOMIC CHARGES
----------------------
   0 C :   -0.593069
   1 C :    0.113360
   2 C :    0.192511
   3 C :   -0.409004
   4 C :    0.194093
   5 C :    0.098131
   6 H :   -0.193239
   7 H :   -0.199084
   8 O :    0.592877
   9 C :    0.357840
  10 H :   -0.179146
  11 H :   -0.171624
  12 H :   -0.171091
  13 H :   -0.177496
  14 H :   -0.194850
  15 S :    1.301501
  16 H :   -0.561712

  Mayer bond orders larger than 0.100000
B(  0-C ,  1-C ) :   0.8723 B(  0-C ,  5-C ) :   1.0200 B(  0-C , 15-S ) :   0.2517
B(  1-C ,  2-C ) :   1.1901 B(  1-C ,  3-C ) :  -0.3289 B(  1-C , 14-H ) :   0.7984
B(  2-C ,  3-C ) :   0.6108 B(  2-C ,  4-C ) :   0.2225 B(  2-C ,  8-O ) :   0.3012
B(  2-C , 13-H ) :   0.3885 B(  3-C ,  4-C ) :   0.8815 B(  3-C ,  5-C ) :  -0.2961
B(  3-C ,  7-H ) :   0.1138 B(  3-C ,  8-O ) :   0.3403 B(  4-C ,  5-C ) :   0.8114
B(  4-C ,  7-H ) :   0.3973 B(  4-C ,  8-O ) :  -0.1186 B(  4-C ,  9-C ) :  -0.1187
B(  5-C ,  6-H ) :   0.6964 B(  5-C , 15-S ) :   0.1505 B(  8-O ,  9-C ) :   0.9926
B(  9-C , 10-H ) :   0.9788 B(  9-C , 11-H ) :   0.9172 B(  9-C , 12-H ) :   0.9178
B( 15-S , 16-H ) :   1.0667

Dispersion correction           -0.005447989
FINAL SINGLE POINT ENERGY      -744.901199163606

DIPOLE MOMENT
-------------

Method             : SCF
Type of density    : Electron Density
Multiplicity       :   1
Irrep              :   0
Energy             :  -744.8957511746791624 Eh
Relativity type    :
Basis              : AO
                                X                 Y                 Z
Electronic contribution:      7.099204380       1.001439117      -0.480763181
Nuclear contribution   :     -7.946346895      -1.153610244       0.552094833
                        -----------------------------------------
Total Dipole Moment    :     -0.847142515      -0.152171126       0.071331652
                        -----------------------------------------
Magnitude (a.u.)       :      0.863651953
Magnitude (Debye)      :      2.195228808

VIBRATIONAL FREQUENCIES
-----------------------

Scaling factor for frequencies =  1.000000000  (already applied!)

     0:       0.00 cm**-1
     1:       0.00 cm**-1
     2:       0.00 cm**-1
     3:       0.00 cm**-1
     4:       0.00 cm**-1
     5:       0.00 cm**-1
     6:      74.83 cm**-1
     7:     103.63 cm**-1
     8:     137.22 cm**-1
     9:     197.58 cm**-1
    10:     240.11 cm**-1
    11:     303.69 cm**-1
    12:     334.75 cm**-1
    13:     360.61 cm**-1
    14:     416.95 cm**-1
    15:     499.95 cm**-1
    16:     507.85 cm**-1
    17:     630.15 cm**-1
    18:     645.02 cm**-1
    19:     718.78 cm**-1
    20:     809.39 cm**-1
    21:     812.28 cm**-1
    22:     825.36 cm**-1
    23:     909.27 cm**-1
    24:     936.46 cm**-1
    25:     958.04 cm**-1
    26:    1019.46 cm**-1
    27:    1036.55 cm**-1
    28:    1109.09 cm**-1
    29:    1130.99 cm**-1
    30:    1161.03 cm**-1
    31:    1195.43 cm**-1
    32:    1200.57 cm**-1
    33:    1264.61 cm**-1
    34:    1325.45 cm**-1
    35:    1353.58 cm**-1
    36:    1437.37 cm**-1
    37:    1459.92 cm**-1
    38:    1468.39 cm**-1
    39:    1479.03 cm**-1
    40:    1514.87 cm**-1
    41:    1603.83 cm**-1
    42:    1628.35 cm**-1
    43:    2665.20 cm**-1
    44:    3010.57 cm**-1
    45:    3081.08 cm**-1
    46:    3142.82 cm**-1
    47:    3165.02 cm**-1
    48:    3166.83 cm**-1
    49:    3182.60 cm**-1
    50:    3206.79 cm**-1

IR SPECTRUM
-----------

 Mode   freq       eps      Int      T**2         TX        TY        TZ
       cm**-1   L/(mol*cm) km/mol    a.u.
----------------------------------------------------------------------------
  6:     74.83   0.000186    0.94  0.000777  (-0.003655  0.000379 -0.027625)
  7:    103.63   0.006820   34.47  0.020539  ( 0.002819  0.006067 -0.143157)
  8:    137.22   0.000007    0.04  0.000017  (-0.002977 -0.001094 -0.002551)
  9:    197.58   0.000872    4.41  0.001378  ( 0.033957 -0.014815 -0.002336)
 10:    240.11   0.000013    0.07  0.000017  ( 0.000849 -0.000780  0.003999)
 11:    303.69   0.000060    0.30  0.000061  ( 0.005153 -0.005850  0.000612)
 12:    334.75   0.001205    6.09  0.001123  (-0.001028  0.000793 -0.033491)
 13:    360.61   0.000225    1.14  0.000195  (-0.001043 -0.013897 -0.000672)
 14:    416.95   0.000056    0.29  0.000042  ( 0.000455 -0.000647  0.006454)
 15:    499.95   0.000196    0.99  0.000122  ( 0.010844  0.002192 -0.000265)
 16:    507.85   0.008016   40.51  0.004926  ( 0.003919 -0.000650  0.070070)
 17:    630.15   0.008263   41.76  0.004092  ( 0.061643 -0.016604 -0.004052)
 18:    645.02   0.004186   21.16  0.002025  ( 0.044775 -0.003869 -0.002351)
 19:    718.78   0.000166    0.84  0.000072  ( 0.000588  0.000072  0.008481)
 20:    809.39   0.002227   11.25  0.000859  (-0.003079  0.000772 -0.029130)
 21:    812.28   0.000719    3.63  0.000276  ( 0.009198 -0.013131 -0.004381)
 22:    825.36   0.021217  107.22  0.008022  (-0.005269  0.000693 -0.089407)
 23:    909.27   0.001877    9.49  0.000644  ( 0.004198  0.025032 -0.000288)
 24:    936.46   0.000032    0.16  0.000011  (-0.000535 -0.000138 -0.003202)
 25:    958.04   0.000019    0.09  0.000006  ( 0.000620  0.001307  0.002000)
 26:   1019.46   0.001419    7.17  0.000434  (-0.020457 -0.003743  0.001372)
 27:   1036.55   0.025704  129.90  0.007739  ( 0.070224  0.052844 -0.003812)
 28:   1109.09   0.005872   29.68  0.001652  ( 0.036986 -0.016665 -0.002554)
 29:   1130.99   0.003932   19.87  0.001085  ( 0.001198 -0.032917 -0.000316)
 30:   1161.03   0.000172    0.87  0.000046  ( 0.001122 -0.000407  0.006684)
 31:   1195.43   0.002055   10.38  0.000536  ( 0.023015  0.002125 -0.001465)
 32:   1200.57   0.011114   56.17  0.002889  ( 0.050065  0.019335 -0.002940)
 33:   1264.61   0.092929  469.62  0.022932  (-0.150740 -0.010781  0.009650)
 34:   1325.45   0.001218    6.15  0.000287  ( 0.008130 -0.014836 -0.000712)
 35:   1353.58   0.007282   36.80  0.001679  (-0.030897 -0.026872  0.001447)
 36:   1437.37   0.001065    5.38  0.000231  (-0.015118  0.001374  0.000918)
 37:   1459.92   0.006519   32.94  0.001393  ( 0.036105 -0.009273 -0.001970)
 38:   1468.39   0.002883   14.57  0.000613  ( 0.000525 -0.000069 -0.024747)
 39:   1479.03   0.006792   34.32  0.001433  (-0.037657  0.003492  0.001664)
 40:   1514.87   0.055031  278.10  0.011336  (-0.106239 -0.001278  0.006930)
 41:   1603.83   0.005483   27.71  0.001067  (-0.028088  0.016534  0.002119)
 42:   1628.35   0.007569   38.25  0.001451  ( 0.037506  0.006136 -0.002489)
 43:   2665.20   0.001883    9.52  0.000221  ( 0.008920  0.011869  0.000291)
 44:   3010.57   0.016651   84.15  0.001726  (-0.030513 -0.028148  0.001634)
 45:   3081.08   0.010703   54.09  0.001084  (-0.002394  0.000255 -0.032836)
 46:   3142.82   0.005425   27.42  0.000539  (-0.020618  0.010557  0.001457)
 47:   3165.02   0.002140   10.82  0.000211  ( 0.010447 -0.010076 -0.000615)
 48:   3166.83   0.001754    8.86  0.000173  (-0.012488 -0.004069  0.000567)
 49:   3182.60   0.001803    9.11  0.000177  (-0.002628  0.013030  0.000351)
 50:   3206.79   0.001033    5.22  0.000101  ( 0.007772  0.006319 -0.000453)

--------------------------
THERMOCHEMISTRY AT 298.15K
--------------------------

Temperature         ...   298.15 K
Pressure            ...     1.00 atm
Total Mass          ...   140.20 AMU
Quasi RRHO          ...     True
Cut-Off Frequency   ...     1.00 cm^-1

Throughout the following assumptions are being made:
  (1) The electronic state is orbitally nondegenerate
  (2) There are no thermally accessible electronically excited states
  (3) Hindered rotations indicated by low frequency modes are not
      treated as such but are treated as vibrations and this may
      cause some error
  (4) All equations used are the standard statistical mechanics
      equations for an ideal gas
  (5) All vibrations are strictly harmonic

freq.      74.83  E(vib)   ...       0.49
freq.     103.63  E(vib)   ...       0.46
freq.     137.22  E(vib)   ...       0.42
freq.     197.58  E(vib)   ...       0.35
freq.     240.11  E(vib)   ...       0.31
freq.     303.69  E(vib)   ...       0.26
freq.     334.75  E(vib)   ...       0.24
freq.     360.61  E(vib)   ...       0.22
freq.     416.95  E(vib)   ...       0.18
freq.     499.95  E(vib)   ...       0.14
freq.     507.85  E(vib)   ...       0.14
freq.     630.15  E(vib)   ...       0.09
freq.     645.02  E(vib)   ...       0.09
freq.     718.78  E(vib)   ...       0.07
freq.     809.39  E(vib)   ...       0.05
freq.     812.28  E(vib)   ...       0.05
freq.     825.36  E(vib)   ...       0.04
freq.     909.27  E(vib)   ...       0.03
freq.     936.46  E(vib)   ...       0.03
freq.     958.04  E(vib)   ...       0.03
freq.    1019.46  E(vib)   ...       0.02
freq.    1036.55  E(vib)   ...       0.02
freq.    1109.09  E(vib)   ...       0.02
freq.    1130.99  E(vib)   ...       0.01
freq.    1161.03  E(vib)   ...       0.01
freq.    1195.43  E(vib)   ...       0.01
freq.    1200.57  E(vib)   ...       0.01
freq.    1264.61  E(vib)   ...       0.01
freq.    1325.45  E(vib)   ...       0.01
freq.    1353.58  E(vib)   ...       0.01
freq.    1437.37  E(vib)   ...       0.00
freq.    1459.92  E(vib)   ...       0.00
freq.    1468.39  E(vib)   ...       0.00
freq.    1479.03  E(vib)   ...       0.00
freq.    1514.87  E(vib)   ...       0.00
freq.    1603.83  E(vib)   ...       0.00
freq.    1628.35  E(vib)   ...       0.00
freq.    2665.20  E(vib)   ...       0.00
freq.    3010.57  E(vib)   ...       0.00
freq.    3081.08  E(vib)   ...       0.00
freq.    3142.82  E(vib)   ...       0.00
freq.    3165.02  E(vib)   ...       0.00
freq.    3166.83  E(vib)   ...       0.00
freq.    3182.60  E(vib)   ...       0.00
freq.    3206.79  E(vib)   ...       0.00

------------
INNER ENERGY
------------

The inner energy is: U= E(el) + E(ZPE) + E(vib) + E(rot) + E(trans)
    E(el)   - is the total energy from the electronic structure calculation
              = E(kin-el) + E(nuc-el) + E(el-el) + E(nuc-nuc)
    E(ZPE)  - the the zero temperature vibrational energy from the frequency calculation
    E(vib)  - the the finite temperature correction to E(ZPE) due to population
              of excited vibrational states
    E(rot)  - is the rotational thermal energy
    E(trans)- is the translational thermal energy

Summary of contributions to the inner energy U:
Electronic energy                ...   -744.90119916 Eh
Zero point energy                ...      0.13083822 Eh      82.10 kcal/mol
Thermal vibrational correction   ...      0.00610461 Eh       3.83 kcal/mol
Thermal rotational correction    ...      0.00141627 Eh       0.89 kcal/mol
Thermal translational correction ...      0.00141627 Eh       0.89 kcal/mol
-----------------------------------------------------------------------
Total thermal energy                   -744.76142379 Eh

Summary of corrections to the electronic energy:
(perhaps to be used in another calculation)
Total thermal correction                  0.00893715 Eh       5.61 kcal/mol
Non-thermal (ZPE) correction              0.13083822 Eh      82.10 kcal/mol
-----------------------------------------------------------------------
Total correction                          0.13977537 Eh      87.71 kcal/mol

--------
ENTHALPY
--------

The enthalpy is H = U + kB*T
                kB is Boltzmann's constant
Total thermal energy              ...   -744.76142379 Eh
Thermal Enthalpy correction       ...      0.00094421 Eh       0.59 kcal/mol
-----------------------------------------------------------------------
Total Enthalpy                    ...   -744.76047958 Eh

Note: Only C1 symmetry has been detected, increase convergence thresholds
      if your molecule has a higher symmetry. Symmetry factor of 1.0 is
      used for the rotational entropy correction.

Note: Rotational entropy computed according to Herzberg
Infrared and Raman Spectra, Chapter V,1, Van Nostrand Reinhold, 1945
Point Group:  C1, Symmetry Number:   1
Rotational constants in cm-1:     0.158793     0.023135     0.020272

Vibrational entropy computed according to the QRRHO of S. Grimme
Chem.Eur.J. 2012 18 9955 using a reference frequency of 100.0 cm-1

-------
ENTROPY
-------

The entropy contributions are T*S = T*(S(el)+S(vib)+S(rot)+S(trans))
     S(el)   - electronic entropy
     S(vib)  - vibrational entropy
     S(rot)  - rotational entropy
     S(trans)- translational entropy
The entropies will be listed as multiplied by the temperature to get
units of energy

Electronic entropy                ...      0.00000000 Eh      0.00 kcal/mol
Vibrational entropy               ...      0.01034449 Eh      6.49 kcal/mol
Rotational entropy                ...      0.01399807 Eh      8.78 kcal/mol
Translational entropy             ...      0.01934980 Eh     12.14 kcal/mol
-----------------------------------------------------------------------
Final entropy term                ...      0.04369236 Eh     27.42 kcal/mol

In case the symmetry of your molecule has not been determined correctly
or in case you have a reason to use a different symmetry number we print
out the resulting rotational entropy values for sn=1,12:

 non-linear molecules -----------------------------------
|  sn= 1 | S(rot)=       0.01399807 Eh      8.78 kcal/mol|
|  sn= 2 | S(rot)=       0.01334361 Eh      8.37 kcal/mol|
|  sn= 3 | S(rot)=       0.01296078 Eh      8.13 kcal/mol|
|  sn= 4 | S(rot)=       0.01268915 Eh      7.96 kcal/mol|
|  sn= 5 | S(rot)=       0.01247847 Eh      7.83 kcal/mol|
|  sn= 6 | S(rot)=       0.01230632 Eh      7.72 kcal/mol|
|  sn= 7 | S(rot)=       0.01216077 Eh      7.63 kcal/mol|
|  sn= 8 | S(rot)=       0.01203470 Eh      7.55 kcal/mol|
|  sn= 9 | S(rot)=       0.01192349 Eh      7.48 kcal/mol|
|  sn=10 | S(rot)=       0.01182401 Eh      7.42 kcal/mol|
|  sn=11 | S(rot)=       0.01173402 Eh      7.36 kcal/mol|
|  sn=12 | S(rot)=       0.01165186 Eh      7.31 kcal/mol|
 linear molecules ---------------------------------------
|  Dinfh | S(rot)=       0.00900672 Eh      5.65 kcal/mol|
|  Cinfv | S(rot)=       0.00966118 Eh      6.06 kcal/mol|

                             ****ORCA TERMINATED NORMALLY****
TOTAL RUN TIME: 0 days 0 hours 17 minutes 37 seconds 587 msec
