                         Program Version 6.0.0  -   RELEASE  -
|  1> !r2SCANh aug-cc-pVTZ d3 TightSCF SlowConv RIJCOSX defgrid2
|  2>
|  3> %pal
|  4> nprocs 15
|  5> end
|  6>
|  7> %scf
|  8> MaxIter 1500
|  9> end
| 10>
| 11> %maxcore 3500
| 12>
| 13> !CPCM
| 14> %cpcm smd true
| 15> SMDsolvent "WATER"
| 16> surfacetype gepol_ses
| 17> rsolv 1.40
| 18> end
| 19>
| 20> * xyz -1 2
| 21> C           0.05676834437269     -0.04126375525375     -0.07379470178985
| 22> C           0.04676127079215      1.38639972567344      0.09948592866889
| 23> C           0.00732325322699      2.02650392411858      1.32436257991460
| 24> C          -0.02811199415728      1.28756028332669      2.56763955505213
| 25> C          -0.01950367462772     -0.17671526637425      2.44249972135594
| 26> C           0.02128903830978     -0.81737610319329      1.17794298580176
| 27> C           0.02766320595178     -2.22274936131322      1.12035686382715
| 28> C          -0.00525760141292     -2.98509780735118      2.27563842056320
| 29> C          -0.04596579054487     -2.34934581671190      3.53299210043314
| 30> C          -0.05269695553496     -0.96718770864542      3.60727949422398
| 31> H           0.07307998987984      1.97354439848574     -0.82691927210829
| 32> H          -0.08387968905241     -0.43627556568955      4.56348338899376
| 33> H          -0.07227523191341     -2.95060132238905      4.44937134345183
| 34> H           0.00009741014830     -4.07969694965667      2.21544872655867
| 35> H           0.05965826160228     -2.67423134322413      0.12415494788135
| 36> C          -0.00135605546558      3.52012474646347      1.44205228332186
| 37> H          -0.89947922034870      3.86767983350127      1.98595203666262
| 38> H           0.86028970160146      3.87394551637077      2.03844092282286
| 39> H           0.02673872207916      4.00491399489856      0.45047397160307
| 40> O          -0.06383664808370      1.85761287334880      3.68239612384268
| 41> O           0.09269366317713     -0.59678036638491     -1.19351016008137
| 42> *
| 43>
| 44>                          ****END OF INPUT****

CARTESIAN COORDINATES (ANGSTROEM)
---------------------------------
  C      0.056768   -0.041264   -0.073795
  C      0.046761    1.386400    0.099486
  C      0.007323    2.026504    1.324363
  C     -0.028112    1.287560    2.567640
  C     -0.019504   -0.176715    2.442500
  C      0.021289   -0.817376    1.177943
  C      0.027663   -2.222749    1.120357
  C     -0.005258   -2.985098    2.275638
  C     -0.045966   -2.349346    3.532992
  C     -0.052697   -0.967188    3.607279
  H      0.073080    1.973544   -0.826919
  H     -0.083880   -0.436276    4.563483
  H     -0.072275   -2.950601    4.449371
  H      0.000097   -4.079697    2.215449
  H      0.059658   -2.674231    0.124155
  C     -0.001356    3.520125    1.442052
  H     -0.899479    3.867680    1.985952
  H      0.860290    3.873946    2.038441
  H      0.026739    4.004914    0.450474
  O     -0.063837    1.857613    3.682396
  O      0.092694   -0.596780   -1.193510

 Total Charge           Charge          ....   -1
 Multiplicity           Mult            ....    2
 Number of Electrons    NEL             ....   91
 Basis Dimension        Dim             ....  782

ORBITAL ENERGIES
----------------
                 SPIN UP ORBITALS
  NO   OCC          E(Eh)            E(eV)
   0   1.0000     -19.078422      -519.1502
   1   1.0000     -19.078393      -519.1495
   2   1.0000     -10.210985      -277.8550
   3   1.0000     -10.208293      -277.7818
   4   1.0000     -10.161777      -276.5160
   5   1.0000     -10.159998      -276.4676
   6   1.0000     -10.159821      -276.4628
   7   1.0000     -10.159423      -276.4519
   8   1.0000     -10.159327      -276.4493
   9   1.0000     -10.156762      -276.3795
  10   1.0000     -10.156597      -276.3750
  11   1.0000     -10.145618      -276.0763
  12   1.0000     -10.142268      -275.9851
  13   1.0000      -1.014819       -27.6146
  14   1.0000      -1.012496       -27.5514
  15   1.0000      -0.858597       -23.3636
  16   1.0000      -0.810802       -22.0631
  17   1.0000      -0.751810       -20.4578
  18   1.0000      -0.748535       -20.3687
  19   1.0000      -0.697276       -18.9739
  20   1.0000      -0.656540       -17.8654
  21   1.0000      -0.608585       -16.5604
  22   1.0000      -0.586508       -15.9597
  23   1.0000      -0.549161       -14.9434
  24   1.0000      -0.499563       -13.5938
  25   1.0000      -0.487638       -13.2693
  26   1.0000      -0.458865       -12.4864
  27   1.0000      -0.436090       -11.8666
  28   1.0000      -0.425138       -11.5686
  29   1.0000      -0.416671       -11.3382
  30   1.0000      -0.410318       -11.1653
  31   1.0000      -0.408861       -11.1257
  32   1.0000      -0.391285       -10.6474
  33   1.0000      -0.378802       -10.3077
  34   1.0000      -0.371577       -10.1111
  35   1.0000      -0.369398       -10.0518
  36   1.0000      -0.357325        -9.7233
  37   1.0000      -0.345449        -9.4001
  38   1.0000      -0.333272        -9.0688
  39   1.0000      -0.322718        -8.7816
  40   1.0000      -0.271216        -7.3801
  41   1.0000      -0.253522        -6.8987
  42   1.0000      -0.243337        -6.6215
  43   1.0000      -0.241660        -6.5759
  44   1.0000      -0.230447        -6.2708
  45   1.0000      -0.153105        -4.1662
  46   0.0000      -0.045835        -1.2472
  47   0.0000      -0.026294        -0.7155
  48   0.0000       0.008561         0.2329
  49   0.0000       0.021560         0.5867
  50   0.0000       0.024378         0.6634

                 SPIN DOWN ORBITALS
  NO   OCC          E(Eh)            E(eV)
   0   1.0000     -19.071699      -518.9673
   1   1.0000     -19.071405      -518.9593
   2   1.0000     -10.208796      -277.7955
   3   1.0000     -10.205747      -277.7125
   4   1.0000     -10.159619      -276.4573
   5   1.0000     -10.159592      -276.4565
   6   1.0000     -10.159478      -276.4534
   7   1.0000     -10.158904      -276.4378
   8   1.0000     -10.158787      -276.4347
   9   1.0000     -10.156748      -276.3792
  10   1.0000     -10.156360      -276.3686
  11   1.0000     -10.144321      -276.0410
  12   1.0000     -10.142425      -275.9894
  13   1.0000      -1.004070       -27.3221
  14   1.0000      -1.001360       -27.2484
  15   1.0000      -0.856293       -23.3009
  16   1.0000      -0.804930       -21.9033
  17   1.0000      -0.749328       -20.3903
  18   1.0000      -0.746414       -20.3109
  19   1.0000      -0.692275       -18.8378
  20   1.0000      -0.648583       -17.6488
  21   1.0000      -0.606301       -16.4983
  22   1.0000      -0.583432       -15.8760
  23   1.0000      -0.545662       -14.8482
  24   1.0000      -0.497556       -13.5392
  25   1.0000      -0.484240       -13.1769
  26   1.0000      -0.456286       -12.4162
  27   1.0000      -0.435271       -11.8443
  28   1.0000      -0.412710       -11.2304
  29   1.0000      -0.409905       -11.1541
  30   1.0000      -0.407852       -11.0982
  31   1.0000      -0.407491       -11.0884
  32   1.0000      -0.381178       -10.3724
  33   1.0000      -0.376751       -10.2519
  34   1.0000      -0.368013       -10.0141
  35   1.0000      -0.356148        -9.6913
  36   1.0000      -0.350140        -9.5278
  37   1.0000      -0.332783        -9.0555
  38   1.0000      -0.331858        -9.0303
  39   1.0000      -0.321635        -8.7521
  40   1.0000      -0.248291        -6.7563
  41   1.0000      -0.246857        -6.7173
  42   1.0000      -0.236272        -6.4293
  43   1.0000      -0.234921        -6.3925
  44   1.0000      -0.225071        -6.1245
  45   0.0000      -0.099717        -2.7134
  46   0.0000      -0.036431        -0.9913
  47   0.0000      -0.012943        -0.3522
  48   0.0000       0.009591         0.2610
  49   0.0000       0.022253         0.6055

MULLIKEN ATOMIC CHARGES AND SPIN POPULATIONS
--------------------------------------------
   0 C :    1.157288    0.134692
   1 C :   -0.742348    0.094186
   2 C :    0.462520    0.099495
   3 C :    0.689429    0.152454
   4 C :    1.614562    0.000980
   5 C :    1.279438    0.049204
   6 C :   -1.244183    0.002287
   7 C :   -0.452550    0.033692
   8 C :   -0.434814    0.012821
   9 C :   -1.495575    0.018930
  10 H :    0.059773    0.001432
  11 H :   -0.062094   -0.009497
  12 H :    0.627910   -0.000904
  13 H :    0.574868    0.000371
  14 H :   -0.098672   -0.012702
  15 C :   -0.824354   -0.036088
  16 H :    0.202135    0.010927
  17 H :    0.199910    0.010926
  18 H :    0.174802   -0.001719
  19 O :   -1.336273    0.228229
  20 O :   -1.351772    0.210285
Sum of atomic charges         :   -1.0000000

LOEWDIN ATOMIC CHARGES AND SPIN POPULATIONS
-------------------------------------------
   0 C :   -0.653851    0.118930
   1 C :    0.180180    0.083538
   2 C :   -0.167346    0.101865
   3 C :   -0.622502    0.133494
   4 C :   -0.149236    0.043543
   5 C :   -0.154575    0.044239
   6 C :    0.181405    0.011052
   7 C :    0.189654    0.019857
   8 C :    0.189454    0.016025
   9 C :    0.183204    0.014237
  10 H :   -0.191048    0.008693
  11 H :   -0.195812    0.001504
  12 H :   -0.173016    0.002342
  13 H :   -0.173361    0.003903
  14 H :   -0.195616    0.000097
  15 C :    0.537214    0.013589
  16 H :   -0.166051    0.003571
  17 H :   -0.165994    0.003574
  18 H :   -0.169829   -0.000346
  19 O :    0.375475    0.194096
  20 O :    0.341650    0.182198

  Mayer bond orders larger than 0.100000
B(  0-C ,  1-C ) :   0.6905 B(  0-C ,  3-C ) :   0.1041 B(  0-C ,  5-C ) :   0.2912
B(  0-C ,  6-C ) :   0.6137 B(  0-C ,  8-C ) :   0.1429 B(  0-C ,  9-C ) :  -0.1904
B(  0-C , 10-H ) :  -0.3330 B(  0-C , 14-H ) :  -0.1049 B(  0-C , 20-O ) :  -0.2840
B(  1-C ,  2-C ) :   1.1036 B(  1-C ,  3-C ) :  -0.2502 B(  1-C ,  4-C ) :  -0.2216
B(  1-C ,  5-C ) :   0.3437 B(  1-C , 10-H ) :   0.9722 B(  1-C , 15-C ) :  -0.1878
B(  1-C , 20-O ) :   0.2649 B(  2-C ,  3-C ) :   0.6818 B(  2-C ,  4-C ) :   0.5970
B(  2-C ,  5-C ) :  -0.2079 B(  2-C , 10-H ) :  -0.1058 B(  2-C , 15-C ) :   0.3345
B(  2-C , 16-H ) :  -0.1108 B(  2-C , 17-H ) :  -0.1108 B(  2-C , 19-O ) :   0.1428
B(  2-C , 20-O ) :   0.1251 B(  3-C ,  4-C ) :   0.4720 B(  3-C ,  6-C ) :  -0.1944
B(  3-C ,  9-C ) :   0.7248 B(  3-C , 10-H ) :   0.1309 B(  3-C , 15-C ) :   0.2854
B(  4-C ,  5-C ) :   0.9964 B(  4-C ,  6-C ) :  -0.6814 B(  4-C ,  7-C ) :  -0.2728
B(  4-C ,  9-C ) :  -0.6990 B(  4-C , 11-H ) :  -0.2019 B(  4-C , 19-O ) :   0.1021
B(  5-C ,  6-C ) :  -0.1367 B(  5-C ,  7-C ) :   0.1007 B(  5-C ,  8-C ) :  -0.1782
B(  5-C ,  9-C ) :  -0.3671 B(  5-C , 10-H ) :   0.1575 B(  5-C , 14-H ) :  -0.1909
B(  5-C , 20-O ) :   0.1611 B(  6-C ,  7-C ) :   1.0829 B(  6-C , 10-H ) :   0.1108
B(  6-C , 13-H ) :  -0.1641 B(  6-C , 14-H ) :   1.4176 B(  7-C ,  8-C ) :   1.0188
B(  7-C , 13-H ) :   0.4233 B(  8-C ,  9-C ) :   1.1483 B(  8-C , 12-H ) :   0.3293
B(  9-C , 11-H ) :   1.3284 B(  9-C , 12-H ) :  -0.1781 B( 10-H , 14-H ) :   0.1570
B( 10-H , 20-O ) :   0.1390 B( 11-H , 19-O ) :   0.2705 B( 14-H , 20-O ) :   0.2765
B( 15-C , 16-H ) :   0.9922 B( 15-C , 17-H ) :   0.9946 B( 15-C , 18-H ) :   1.0319

Dispersion correction           -0.008311200
FINAL SINGLE POINT ENERGY      -574.460437996970

DIPOLE MOMENT
-------------

Method             : SCF
Type of density    : Electron Density
Multiplicity       :   2
Irrep              :   0
Energy             :  -574.4521267974492957 Eh
Relativity type    :
Basis              : AO
                                X                 Y                 Z
Electronic contribution:      0.027846239      -3.903416159      -0.473354147
Nuclear contribution   :     -0.055391570       3.039875839       1.447342045
                        -----------------------------------------
Total Dipole Moment    :     -0.027545332      -0.863540320       0.973987898
                        -----------------------------------------
Magnitude (a.u.)       :      1.301965074
Magnitude (Debye)      :      3.309332222

Rotational constants in cm-1:             0.041924             0.026162             0.016157
Rotational constants in MHz :          1256.843177           784.307239           484.385236

                             ****ORCA TERMINATED NORMALLY****
TOTAL RUN TIME: 0 days 0 hours 6 minutes 21 seconds 974 msec
