                         Program Version 6.0.0  -   RELEASE  -
|  1> !B3LYP aug-cc-pVTZ d3 TightSCF SlowConv RIJCOSX defgrid2
|  2>
|  3> %pal
|  4> nprocs 4
|  5> end
|  6>
|  7> %scf
|  8> MaxIter 1500
|  9> end
| 10>
| 11> %maxcore 3000
| 12>
| 13> !CPCM
| 14> %cpcm smd true
| 15> SMDsolvent "MeCN"
| 16> surfacetype gepol_ses
| 17> rsolv 2.19
| 18> end
| 19>
| 20> * xyz 1 2
| 21> C          -0.08274669059718     -1.04399274826201      0.00954198550444
| 22> C          -1.44314186979999     -1.21224349192059      0.01464115375041
| 23> C          -2.32257727617337     -0.09487222329371      0.01274887003500
| 24> C          -1.76475290459407      1.20761482302953      0.00780256836072
| 25> C          -0.40273191503338      1.38761253420536      0.00299374201136
| 26> C           0.48723075022230      0.26923379961588      0.00339892002300
| 27> C           1.88361104255076      0.51997141228763     -0.00136731410568
| 28> C           2.88609272782847     -0.43252038403740     -0.00211440107444
| 29> C           4.32371272330116     -0.12403052833475     -0.00716059814151
| 30> H           4.81199450703941     -0.59263895023193      0.87108589562038
| 31> H           4.80704713115468     -0.59771697456439     -0.88539713829447
| 32> H           4.53724499406217      0.95562079688104     -0.01081444259812
| 33> H           2.61316130337916     -1.49525746809077      0.00127055185440
| 34> H           2.19060539304120      1.57295312497944     -0.00515248687208
| 35> H           0.01742107746022      2.39740330737597      0.00010725500974
| 36> H          -2.43168783850088      2.07400339025986      0.00974847718212
| 37> C          -3.79206162044774     -0.30228879497229     -0.00564898818348
| 38> H          -4.34940861071486      0.62196968873633      0.20771494941170
| 39> H          -4.10189712650768     -0.66414858988669     -1.00697947362935
| 40> H          -4.09284114272650     -1.08666315679518      0.71118909458011
| 41> H          -1.86630567510074     -2.22073732773736      0.02172898720586
| 42> H           0.56388072015687     -1.92419663924397      0.01175289234987
| 43> *
| 44>
| 45>                          ****END OF INPUT****

CARTESIAN COORDINATES (ANGSTROEM)
---------------------------------
  C     -0.082747   -1.043993    0.009542
  C     -1.443142   -1.212243    0.014641
  C     -2.322577   -0.094872    0.012749
  C     -1.764753    1.207615    0.007803
  C     -0.402732    1.387613    0.002994
  C      0.487231    0.269234    0.003399
  C      1.883611    0.519971   -0.001367
  C      2.886093   -0.432520   -0.002114
  C      4.323713   -0.124031   -0.007161
  H      4.811995   -0.592639    0.871086
  H      4.807047   -0.597717   -0.885397
  H      4.537245    0.955621   -0.010814
  H      2.613161   -1.495257    0.001271
  H      2.190605    1.572953   -0.005152
  H      0.017421    2.397403    0.000107
  H     -2.431688    2.074003    0.009748
  C     -3.792062   -0.302289   -0.005649
  H     -4.349409    0.621970    0.207715
  H     -4.101897   -0.664149   -1.006979
  H     -4.092841   -1.086663    0.711189
  H     -1.866306   -2.220737    0.021729
  H      0.563881   -1.924197    0.011753

 Total Charge           Charge          ....    1
 Multiplicity           Mult            ....    2
 Number of Electrons    NEL             ....   71
 Basis Dimension        Dim             ....  736

ORBITAL ENERGIES
----------------
                 SPIN UP ORBITALS
  NO   OCC          E(Eh)            E(eV)
   0   1.0000     -10.243158      -278.7305
   1   1.0000     -10.238857      -278.6135
   2   1.0000     -10.237206      -278.5686
   3   1.0000     -10.225302      -278.2446
   4   1.0000     -10.215887      -277.9884
   5   1.0000     -10.215553      -277.9793
   6   1.0000     -10.204258      -277.6720
   7   1.0000     -10.204188      -277.6701
   8   1.0000     -10.185418      -277.1593
   9   1.0000     -10.180504      -277.0256
  10   1.0000      -0.900436       -24.5021
  11   1.0000      -0.848471       -23.0881
  12   1.0000      -0.801421       -21.8078
  13   1.0000      -0.780493       -21.2383
  14   1.0000      -0.737755       -20.0753
  15   1.0000      -0.683192       -18.5906
  16   1.0000      -0.642221       -17.4757
  17   1.0000      -0.617515       -16.8034
  18   1.0000      -0.580642       -15.8001
  19   1.0000      -0.536152       -14.5894
  20   1.0000      -0.503385       -13.6978
  21   1.0000      -0.482616       -13.1327
  22   1.0000      -0.457796       -12.4573
  23   1.0000      -0.447854       -12.1867
  24   1.0000      -0.442534       -12.0420
  25   1.0000      -0.442062       -12.0291
  26   1.0000      -0.433601       -11.7989
  27   1.0000      -0.406085       -11.0501
  28   1.0000      -0.398737       -10.8502
  29   1.0000      -0.396509       -10.7896
  30   1.0000      -0.382859       -10.4181
  31   1.0000      -0.377282       -10.2664
  32   1.0000      -0.358702        -9.7608
  33   1.0000      -0.327803        -8.9200
  34   1.0000      -0.291582        -7.9343
  35   1.0000      -0.255672        -6.9572
  36   0.0000      -0.089443        -2.4339
  37   0.0000      -0.041394        -1.1264
  38   0.0000      -0.006000        -0.1633
  39   0.0000       0.000654         0.0178
  40   0.0000       0.001784         0.0486

                 SPIN DOWN ORBITALS
  NO   OCC          E(Eh)            E(eV)
   0   1.0000     -10.237512      -278.5769
   1   1.0000     -10.235033      -278.5094
   2   1.0000     -10.235001      -278.5085
   3   1.0000     -10.224506      -278.2230
   4   1.0000     -10.214552      -277.9521
   5   1.0000     -10.214216      -277.9430
   6   1.0000     -10.204720      -277.6845
   7   1.0000     -10.204540      -277.6796
   8   1.0000     -10.185563      -277.1633
   9   1.0000     -10.180579      -277.0276
  10   1.0000      -0.894450       -24.3392
  11   1.0000      -0.839280       -22.8380
  12   1.0000      -0.792463       -21.5640
  13   1.0000      -0.778741       -21.1906
  14   1.0000      -0.736087       -20.0299
  15   1.0000      -0.677239       -18.4286
  16   1.0000      -0.638967       -17.3872
  17   1.0000      -0.612393       -16.6641
  18   1.0000      -0.576232       -15.6801
  19   1.0000      -0.533859       -14.5270
  20   1.0000      -0.501037       -13.6339
  21   1.0000      -0.480204       -13.0670
  22   1.0000      -0.455334       -12.3903
  23   1.0000      -0.447062       -12.1652
  24   1.0000      -0.440135       -11.9767
  25   1.0000      -0.431026       -11.7288
  26   1.0000      -0.421630       -11.4731
  27   1.0000      -0.403348       -10.9756
  28   1.0000      -0.395537       -10.7631
  29   1.0000      -0.386138       -10.5074
  30   1.0000      -0.381612       -10.3842
  31   1.0000      -0.375589       -10.2203
  32   1.0000      -0.356654        -9.7050
  33   1.0000      -0.305766        -8.3203
  34   1.0000      -0.287250        -7.8165
  35   0.0000      -0.186085        -5.0636
  36   0.0000      -0.063444        -1.7264
  37   0.0000      -0.032647        -0.8884
  38   0.0000      -0.005724        -0.1558
  39   0.0000       0.001973         0.0537

MULLIKEN ATOMIC CHARGES AND SPIN POPULATIONS
--------------------------------------------
   0 C :   -0.670643    0.071714
   1 C :   -1.024039   -0.029344
   2 C :    1.395679    0.279249
   3 C :   -0.818757   -0.028334
   4 C :   -0.916940    0.063877
   5 C :    2.217340    0.170916
   6 C :   -0.085863    0.083867
   7 C :   -0.118766    0.382799
   8 C :   -0.809664   -0.031357
   9 H :    0.216754    0.029036
  10 H :    0.213558    0.028882
  11 H :    0.264855   -0.004941
  12 H :    0.317265   -0.024364
  13 H :    0.126675    0.004141
  14 H :    0.195161   -0.004969
  15 H :    0.250843   -0.000623
  16 C :   -0.717705   -0.020036
  17 H :    0.224120   -0.001288
  18 H :    0.264440    0.023194
  19 H :    0.229233    0.012105
  20 H :    0.300482    0.001940
  21 H :   -0.054028   -0.006464
Sum of atomic charges         :    1.0000000

LOEWDIN ATOMIC CHARGES AND SPIN POPULATIONS
-------------------------------------------
   0 C :    0.267972    0.062573
   1 C :    0.269684    0.034154
   2 C :   -0.072897    0.129411
   3 C :    0.272304    0.040519
   4 C :    0.265771    0.066410
   5 C :   -0.080237    0.112857
   6 C :    0.288518    0.115521
   7 C :    0.304555    0.211952
   8 C :    0.604840    0.069093
   9 H :   -0.136506    0.015652
  10 H :   -0.136512    0.015652
  11 H :   -0.152159    0.001576
  12 H :   -0.146070    0.035176
  13 H :   -0.148448    0.008082
  14 H :   -0.140380    0.009113
  15 H :   -0.145041   -0.000917
  16 C :    0.604793    0.044919
  17 H :   -0.151964    0.001906
  18 H :   -0.128931    0.013098
  19 H :   -0.140582    0.007574
  20 H :   -0.140245   -0.002063
  21 H :   -0.158465    0.007743

  Mayer bond orders larger than 0.100000
B(  0-C ,  1-C ) :   1.1267 B(  0-C ,  4-C ) :  -0.5176 B(  0-C ,  5-C ) :   0.1212
B(  0-C ,  6-C ) :   0.1954 B(  0-C , 21-H ) :   1.6145 B(  1-C ,  2-C ) :   0.6499
B(  1-C , 16-C ) :   0.1078 B(  1-C , 20-H ) :   0.8723 B(  1-C , 21-H ) :  -0.1422
B(  2-C ,  3-C ) :   0.6020 B(  2-C ,  5-C ) :  -0.1249 B(  2-C ,  6-C ) :   0.1736
B(  2-C , 16-C ) :   0.3229 B(  3-C ,  4-C ) :   1.5436 B(  3-C ,  5-C ) :  -0.1124
B(  3-C , 15-H ) :   0.9765 B(  3-C , 16-C ) :  -0.1335 B(  4-C ,  5-C ) :  -0.2218
B(  4-C ,  7-C ) :   0.1036 B(  4-C , 14-H ) :   1.2612 B(  5-C ,  6-C ) :   0.3208
B(  5-C ,  7-C ) :  -0.1012 B(  5-C , 14-H ) :  -0.1077 B(  5-C , 21-H ) :  -0.2606
B(  6-C ,  7-C ) :   0.7443 B(  6-C , 13-H ) :   1.1438 B(  7-C ,  8-C ) :   0.6836
B(  7-C , 12-H ) :   1.0796 B(  7-C , 13-H ) :  -0.1323 B(  8-C ,  9-H ) :   1.0005
B(  8-C , 10-H ) :   1.0010 B(  8-C , 11-H ) :   0.9409 B(  8-C , 12-H ) :  -0.1439
B( 14-H , 21-H ) :   0.1083 B( 16-C , 17-H ) :   0.9899 B( 16-C , 18-H ) :   0.9642
B( 16-C , 19-H ) :   0.9915

Dispersion correction           -0.037445837
FINAL SINGLE POINT ENERGY      -388.010386099435

DIPOLE MOMENT
-------------

Method             : SCF
Type of density    : Electron Density
Multiplicity       :   2
Irrep              :   0
Energy             :  -387.9729402624362251 Eh
Relativity type    :
Basis              : AO
                                X                 Y                 Z
Electronic contribution:     -1.600024031       0.804893842       0.058165027
Nuclear contribution   :      2.533197376      -0.996205714      -0.098486582
                        -----------------------------------------
Total Dipole Moment    :      0.933173346      -0.191311873      -0.040321555
                        -----------------------------------------
Magnitude (a.u.)       :      0.953435133
Magnitude (Debye)      :      2.423439515

Rotational constants in cm-1:             0.153944             0.020635             0.018320
Rotational constants in MHz :          4615.121792           618.608795           549.210532

                             ****ORCA TERMINATED NORMALLY****
TOTAL RUN TIME: 0 days 0 hours 5 minutes 41 seconds 210 msec
