                         Program Version 6.0.0  -   RELEASE  -
|  1> !B3LYP freq aug-cc-pVTZ d3 TightSCF SlowConv RIJCOSX defgrid2
|  2>
|  3> %pal
|  4> nprocs 12
|  5>
|  6> end
|  7>
|  8> %scf
|  9> MaxIter 1500
| 10> end
| 11>
| 12> %maxcore 5000
| 13>
| 14> !CPCM
| 15> %cpcm smd true
| 16> SMDsolvent "MeCN"
| 17> surfacetype gepol_ses
| 18> rsolv 2.19
| 19> end
| 20>
| 21> * xyz 0 1
| 22>   C           2.39372352597511     -0.82797270330050      0.67565535739415
| 23>   C           1.27262142480041     -0.39710127788884     -0.04069156959220
| 24>   C           1.38574270667246      0.76050845797041     -0.81799764830221
| 25>   C           2.58705089966775      1.45259182375581     -0.89402230315036
| 26>   C           3.69687982038981      1.00932212216754     -0.18171923892563
| 27>   C           3.59428775652856     -0.13279194966989      0.60552637003839
| 28>   H           4.44718957715762     -0.47749723826497      1.17489581250817
| 29>   H           4.63045150805649      1.55314597573617     -0.23397498244169
| 30>   H           2.65608541243641      2.33990233643403     -1.50901513484986
| 31>   H           0.53061379081464      1.11495768595228     -1.37639576995811
| 32>   C          -0.00001594709953     -1.15991186563900      0.00043780980597
| 33>   C           0.00004367642682     -2.49872374438477      0.00054824920055
| 34>   H          -0.91929952471457     -3.06378026019272      0.07058966949933
| 35>   H           0.91944912197503     -3.06369119345033     -0.06937237940595
| 36>   C          -1.27272430572549     -0.39721829127963      0.04123641118642
| 37>   C          -2.39336788155125     -0.82775008094393     -0.67600626021337
| 38>   C          -3.59384375731727     -0.13232640550316     -0.60664578014092
| 39>   C          -3.69685763651700      1.00961255289791      0.18082059050996
| 40>   C          -2.58750616255062      1.45239229234771      0.89417621062588
| 41>   C          -1.38630148359696      0.76009167153093      0.81886105566347
| 42>   H          -0.53163085950996      1.11408878571306      1.37823229971633
| 43>   H          -2.65688580444455      2.33949770296842      1.50941901547540
| 44>   H          -4.63036483607964      1.55364977231487      0.23246841038717
| 45>   H          -4.44634881075789     -0.47668186398063     -1.17677303621886
| 46>   H          -2.31687340784924     -1.70336571908882     -1.30588350251294
| 47>   H           2.31765109681287     -1.70374258620196      1.30535384370090
| 48> *
| 49>
| 50>                          ****END OF INPUT****

CARTESIAN COORDINATES (ANGSTROEM)
---------------------------------
  C      2.393724   -0.827973    0.675655
  C      1.272621   -0.397101   -0.040692
  C      1.385743    0.760508   -0.817998
  C      2.587051    1.452592   -0.894022
  C      3.696880    1.009322   -0.181719
  C      3.594288   -0.132792    0.605526
  H      4.447190   -0.477497    1.174896
  H      4.630452    1.553146   -0.233975
  H      2.656085    2.339902   -1.509015
  H      0.530614    1.114958   -1.376396
  C     -0.000016   -1.159912    0.000438
  C      0.000044   -2.498724    0.000548
  H     -0.919300   -3.063780    0.070590
  H      0.919449   -3.063691   -0.069372
  C     -1.272724   -0.397218    0.041236
  C     -2.393368   -0.827750   -0.676006
  C     -3.593844   -0.132326   -0.606646
  C     -3.696858    1.009613    0.180821
  C     -2.587506    1.452392    0.894176
  C     -1.386301    0.760092    0.818861
  H     -0.531631    1.114089    1.378232
  H     -2.656886    2.339498    1.509419
  H     -4.630365    1.553650    0.232468
  H     -4.446349   -0.476682   -1.176773
  H     -2.316873   -1.703366   -1.305884
  H      2.317651   -1.703743    1.305354

 Total Charge           Charge          ....    0
 Multiplicity           Mult            ....    1
 Number of Electrons    NEL             ....   96
 Basis Dimension        Dim             ....  920

ORBITAL ENERGIES
----------------

  NO   OCC          E(Eh)            E(eV)
   0   2.0000     -10.189716      -277.2763
   1   2.0000     -10.185934      -277.1734
   2   2.0000     -10.185919      -277.1729
   3   2.0000     -10.173780      -276.8426
   4   2.0000     -10.173778      -276.8426
   5   2.0000     -10.173664      -276.8395
   6   2.0000     -10.173661      -276.8394
   7   2.0000     -10.173251      -276.8282
   8   2.0000     -10.173246      -276.8281
   9   2.0000     -10.172977      -276.8208
  10   2.0000     -10.172975      -276.8207
  11   2.0000     -10.172661      -276.8122
  12   2.0000     -10.172656      -276.8120
  13   2.0000     -10.162557      -276.5372
  14   2.0000      -0.871432       -23.7129
  15   2.0000      -0.855344       -23.2751
  16   2.0000      -0.805236       -21.9116
  17   2.0000      -0.748620       -20.3710
  18   2.0000      -0.748278       -20.3617
  19   2.0000      -0.742941       -20.2164
  20   2.0000      -0.717761       -19.5313
  21   2.0000      -0.630924       -17.1683
  22   2.0000      -0.608296       -16.5526
  23   2.0000      -0.599921       -16.3247
  24   2.0000      -0.597007       -16.2454
  25   2.0000      -0.550673       -14.9846
  26   2.0000      -0.523434       -14.2434
  27   2.0000      -0.499557       -13.5936
  28   2.0000      -0.466192       -12.6857
  29   2.0000      -0.460992       -12.5442
  30   2.0000      -0.450346       -12.2545
  31   2.0000      -0.440941       -11.9986
  32   2.0000      -0.437710       -11.9107
  33   2.0000      -0.419083       -11.4038
  34   2.0000      -0.418653       -11.3921
  35   2.0000      -0.415658       -11.3106
  36   2.0000      -0.382221       -10.4008
  37   2.0000      -0.372723       -10.1423
  38   2.0000      -0.372409       -10.1338
  39   2.0000      -0.355381        -9.6704
  40   2.0000      -0.344631        -9.3779
  41   2.0000      -0.337473        -9.1831
  42   2.0000      -0.331070        -9.0089
  43   2.0000      -0.301333        -8.1997
  44   2.0000      -0.262162        -7.1338
  45   2.0000      -0.257982        -7.0200
  46   2.0000      -0.255289        -6.9468
  47   2.0000      -0.225954        -6.1485
  48   0.0000      -0.044273        -1.2047
  49   0.0000      -0.022325        -0.6075
  50   0.0000      -0.017916        -0.4875
  51   0.0000      -0.005072        -0.1380
  52   0.0000      -0.003686        -0.1003

MULLIKEN ATOMIC CHARGES
-----------------------
   0 C :   -1.231539
   1 C :    2.388911
   2 C :   -0.791184
   3 C :   -0.808068
   4 C :   -0.157105
   5 C :   -0.721732
   6 H :    0.465539
   7 H :    0.460533
   8 H :    0.496490
   9 H :   -0.018186
  10 C :    0.871367
  11 C :   -1.327395
  12 H :    0.243521
  13 H :    0.243185
  14 C :    2.367064
  15 C :   -1.262316
  16 C :   -0.756247
  17 C :   -0.180490
  18 C :   -0.836349
  19 C :   -0.766032
  20 H :   -0.027160
  21 H :    0.493566
  22 H :    0.421292
  23 H :    0.665562
  24 H :   -0.135626
  25 H :   -0.097601
Sum of atomic charges:    0.0000000

LOEWDIN ATOMIC CHARGES
----------------------
   0 C :    0.209185
   1 C :   -0.140667
   2 C :    0.207573
   3 C :    0.202300
   4 C :    0.192838
   5 C :    0.200253
   6 H :   -0.176211
   7 H :   -0.178080
   8 H :   -0.175634
   9 H :   -0.168475
  10 C :   -0.139705
  11 C :    0.551401
  12 H :   -0.202948
  13 H :   -0.202978
  14 C :   -0.140719
  15 C :    0.209229
  16 C :    0.200296
  17 C :    0.192880
  18 C :    0.202303
  19 C :    0.207502
  20 H :   -0.168564
  21 H :   -0.175637
  22 H :   -0.178066
  23 H :   -0.176199
  24 H :   -0.175928
  25 H :   -0.175948

  Mayer bond orders larger than 0.100000
B(  0-C ,  2-C ) :  -0.6762 B(  0-C ,  3-C ) :   0.1335 B(  0-C ,  4-C ) :  -0.1645
B(  0-C ,  5-C ) :   1.3521 B(  0-C ,  6-H ) :  -0.1955 B(  0-C ,  9-H ) :   0.1077
B(  0-C , 10-C ) :   0.3812 B(  0-C , 11-C ) :   0.1140 B(  0-C , 14-C ) :  -0.1296
B(  0-C , 25-H ) :   1.8524 B(  1-C ,  2-C ) :   0.3212 B(  1-C ,  4-C ) :  -0.1301
B(  1-C ,  8-H ) :   0.1162 B(  1-C ,  9-H ) :  -0.1772 B(  1-C , 10-C ) :  -0.1790
B(  1-C , 11-C ) :  -0.2840 B(  1-C , 14-C ) :  -0.1532 B(  1-C , 15-C ) :  -0.1178
B(  1-C , 23-H ) :   0.1148 B(  1-C , 25-H ) :  -0.2468 B(  2-C ,  3-C ) :   1.2888
B(  2-C ,  4-C ) :  -0.1329 B(  2-C ,  8-H ) :  -0.1038 B(  2-C ,  9-H ) :   1.6133
B(  2-C , 10-C ) :   0.2689 B(  2-C , 11-C ) :   0.1149 B(  2-C , 19-C ) :   0.1531
B(  3-C ,  4-C ) :   1.2694 B(  3-C ,  5-C ) :   0.2366 B(  3-C ,  8-H ) :   0.4911
B(  3-C , 25-H ) :  -0.1270 B(  4-C ,  5-C ) :   1.1467 B(  4-C ,  7-H ) :   0.6415
B(  4-C , 10-C ) :   0.1969 B(  5-C ,  6-H ) :   0.6176 B(  5-C ,  7-H ) :  -0.1135
B(  9-H , 25-H ) :   0.2275 B( 10-C , 11-C ) :   0.6873 B( 10-C , 14-C ) :  -0.1737
B( 10-C , 15-C ) :   0.3650 B( 10-C , 17-C ) :   0.2089 B( 10-C , 19-C ) :   0.2898
B( 10-C , 24-H ) :  -0.1951 B( 10-C , 25-H ) :  -0.1788 B( 11-C , 12-H ) :   1.0161
B( 11-C , 13-H ) :   1.0181 B( 11-C , 14-C ) :  -0.2832 B( 11-C , 15-C ) :   0.1166
B( 11-C , 19-C ) :   0.1066 B( 14-C , 19-C ) :   0.3421 B( 14-C , 20-H ) :  -0.1738
B( 14-C , 21-H ) :   0.1137 B( 14-C , 24-H ) :  -0.2587 B( 15-C , 16-C ) :   1.3980
B( 15-C , 17-C ) :  -0.2129 B( 15-C , 18-C ) :   0.1550 B( 15-C , 19-C ) :  -0.6834
B( 15-C , 20-H ) :   0.1476 B( 15-C , 22-H ) :   0.1057 B( 15-C , 23-H ) :  -0.1921
B( 15-C , 24-H ) :   1.9327 B( 16-C , 17-C ) :   1.1678 B( 16-C , 18-C ) :   0.2905
B( 16-C , 20-H ) :  -0.1207 B( 16-C , 23-H ) :   0.2476 B( 17-C , 18-C ) :   1.2752
B( 17-C , 19-C ) :  -0.1412 B( 17-C , 20-H ) :  -0.1102 B( 17-C , 22-H ) :   0.6891
B( 17-C , 23-H ) :   0.1109 B( 18-C , 19-C ) :   1.2985 B( 18-C , 21-H ) :   0.4921
B( 18-C , 24-H ) :  -0.1094 B( 19-C , 20-H ) :   1.6071 B( 20-H , 24-H ) :   0.2495
B( 23-H , 24-H ) :  -0.1071

Dispersion correction           -0.055998489
FINAL SINGLE POINT ENERGY      -540.612155461372

DIPOLE MOMENT
-------------

Method             : SCF
Type of density    : Electron Density
Multiplicity       :   1
Irrep              :   0
Energy             :  -540.5561569721811566 Eh
Relativity type    :
Basis              : AO
                                X                 Y                 Z
Electronic contribution:     -0.000861029       0.603008782      -0.000657569
Nuclear contribution   :      0.000233187      -0.467485635      -0.000533359
                        -----------------------------------------
Total Dipole Moment    :     -0.000627842       0.135523147      -0.001190927
                        -----------------------------------------
Magnitude (a.u.)       :      0.135529834
Magnitude (Debye)      :      0.344489460

VIBRATIONAL FREQUENCIES
-----------------------

Scaling factor for frequencies =  1.000000000  (already applied!)

     0:       0.00 cm**-1
     1:       0.00 cm**-1
     2:       0.00 cm**-1
     3:       0.00 cm**-1
     4:       0.00 cm**-1
     5:       0.00 cm**-1
     6:     -41.14 cm**-1 ***imaginary mode***
     7:     -12.92 cm**-1 ***imaginary mode***
     8:      60.01 cm**-1
     9:     124.97 cm**-1
    10:     208.12 cm**-1
    11:     219.91 cm**-1
    12:     291.13 cm**-1
    13:     338.75 cm**-1
    14:     406.86 cm**-1
    15:     413.33 cm**-1
    16:     441.70 cm**-1
    17:     455.90 cm**-1
    18:     576.79 cm**-1
    19:     599.04 cm**-1
    20:     624.70 cm**-1
    21:     630.20 cm**-1
    22:     652.68 cm**-1
    23:     699.38 cm**-1
    24:     705.45 cm**-1
    25:     715.52 cm**-1
    26:     734.90 cm**-1
    27:     791.47 cm**-1
    28:     800.46 cm**-1
    29:     844.90 cm**-1
    30:     856.86 cm**-1
    31:     858.24 cm**-1
    32:     929.79 cm**-1
    33:     941.34 cm**-1
    34:     942.00 cm**-1
    35:     995.63 cm**-1
    36:     998.07 cm**-1
    37:    1016.07 cm**-1
    38:    1016.47 cm**-1
    39:    1017.70 cm**-1
    40:    1018.24 cm**-1
    41:    1043.85 cm**-1
    42:    1045.56 cm**-1
    43:    1083.97 cm**-1
    44:    1098.18 cm**-1
    45:    1106.23 cm**-1
    46:    1165.05 cm**-1
    47:    1165.27 cm**-1
    48:    1173.44 cm**-1
    49:    1189.49 cm**-1
    50:    1191.46 cm**-1
    51:    1301.07 cm**-1
    52:    1319.44 cm**-1
    53:    1339.11 cm**-1
    54:    1352.06 cm**-1
    55:    1355.45 cm**-1
    56:    1432.47 cm**-1
    57:    1470.51 cm**-1
    58:    1472.93 cm**-1
    59:    1520.56 cm**-1
    60:    1523.85 cm**-1
    61:    1609.05 cm**-1
    62:    1610.16 cm**-1
    63:    1634.79 cm**-1
    64:    1637.13 cm**-1
    65:    1657.89 cm**-1
    66:    3141.93 cm**-1
    67:    3163.08 cm**-1
    68:    3163.20 cm**-1
    69:    3171.24 cm**-1
    70:    3171.63 cm**-1
    71:    3180.13 cm**-1
    72:    3180.25 cm**-1
    73:    3185.36 cm**-1
    74:    3185.77 cm**-1
    75:    3192.24 cm**-1
    76:    3192.48 cm**-1
    77:    3224.15 cm**-1

IR SPECTRUM
-----------

 Mode   freq       eps      Int      T**2         TX        TY        TZ
       cm**-1   L/(mol*cm) km/mol    a.u.
----------------------------------------------------------------------------
  8:     60.01   0.000078    0.40  0.000407  (-0.000001  0.020178 -0.000000)
  9:    124.97   0.000661    3.34  0.001650  (-0.004872 -0.000014 -0.040327)
 10:    208.12   0.000016    0.08  0.000024  (-0.000049  0.004916 -0.000058)
 11:    219.91   0.000172    0.87  0.000244  (-0.008420 -0.000056 -0.013159)
 12:    291.13   0.000041    0.21  0.000044  (-0.000003 -0.006626 -0.000006)
 13:    338.75   0.000424    2.14  0.000390  ( 0.019337  0.000049  0.004058)
 14:    406.86   0.000015    0.08  0.000012  (-0.002381 -0.000116 -0.002453)
 15:    413.33   0.000093    0.47  0.000070  ( 0.000036  0.008377 -0.000114)
 16:    441.70   0.000442    2.23  0.000312  (-0.000002 -0.017661 -0.000108)
 17:    455.90   0.002512   12.69  0.001719  ( 0.010654  0.000018 -0.040073)
 18:    576.79   0.003045   15.39  0.001647  (-0.000027  0.040589  0.000003)
 19:    599.04   0.006328   31.98  0.003296  ( 0.051528  0.000128 -0.025324)
 20:    624.70   0.000562    2.84  0.000281  (-0.013938 -0.000018  0.009290)
 21:    630.20   0.000009    0.04  0.000004  (-0.000033  0.002097 -0.000032)
 22:    652.68   0.003045   15.39  0.001456  ( 0.025115  0.000153 -0.028729)
 23:    699.38   0.003859   19.50  0.001722  ( 0.000568 -0.041478 -0.001089)
 24:    705.45   0.023791  120.23  0.010524  (-0.041583 -0.000245  0.093782)
 25:    715.52   0.008426   42.58  0.003675  ( 0.000185  0.060619 -0.000484)
 26:    734.90   0.000065    0.33  0.000027  ( 0.000049 -0.005235 -0.000038)
 27:    791.47   0.016842   85.11  0.006641  (-0.003635  0.000750  0.081405)
 28:    800.46   0.008715   44.04  0.003398  ( 0.000120  0.058282 -0.000870)
 29:    844.90   0.000116    0.59  0.000043  ( 0.005001  0.000016 -0.004219)
 30:    856.86   0.000005    0.03  0.000002  (-0.000940  0.000177  0.000949)
 31:    858.24   0.000097    0.49  0.000035  ( 0.000026  0.005935 -0.000044)
 32:    929.79   0.017173   86.78  0.005764  ( 0.017416  0.000144  0.073894)
 33:    941.34   0.000244    1.23  0.000081  (-0.008070 -0.000389 -0.003937)
 34:    942.00   0.001045    5.28  0.000346  (-0.000172  0.018607 -0.000141)
 35:    995.63   0.000054    0.27  0.000017  (-0.003158 -0.000163 -0.002649)
 36:    998.07   0.000041    0.21  0.000013  ( 0.000201 -0.003564  0.000120)
 37:   1016.07   0.000048    0.24  0.000015  ( 0.000779  0.000083  0.003749)
 38:   1016.47   0.000003    0.01  0.000001  (-0.000310  0.000539 -0.000708)
 39:   1017.70   0.000009    0.05  0.000003  (-0.001052 -0.001130  0.000644)
 40:   1018.24   0.000017    0.09  0.000005  (-0.001613  0.000596  0.001497)
 41:   1043.85   0.005584   28.22  0.001669  ( 0.040831  0.000049 -0.001435)
 42:   1045.56   0.001313    6.63  0.000392  ( 0.000027  0.019792  0.000047)
 43:   1083.97   0.002560   12.94  0.000737  (-0.018085  0.000045 -0.020248)
 44:   1098.18   0.002041   10.31  0.000580  (-0.000021  0.024080  0.000023)
 45:   1106.23   0.001415    7.15  0.000399  (-0.001478 -0.000042 -0.019927)
 46:   1165.05   0.000003    0.01  0.000001  ( 0.000054 -0.000165  0.000810)
 47:   1165.27   0.000008    0.04  0.000002  ( 0.000021  0.001428  0.000100)
 48:   1173.44   0.000008    0.04  0.000002  ( 0.000018  0.001442 -0.000017)
 49:   1189.49   0.000089    0.45  0.000023  (-0.004700 -0.000032  0.001120)
 50:   1191.46   0.000001    0.01  0.000000  (-0.000107  0.000586  0.000002)
 51:   1301.07   0.000933    4.72  0.000224  ( 0.014899 -0.000019 -0.001374)
 52:   1319.44   0.000071    0.36  0.000017  ( 0.000026  0.004109 -0.000001)
 53:   1339.11   0.005543   28.01  0.001292  ( 0.034927 -0.000008 -0.008482)
 54:   1352.06   0.000105    0.53  0.000024  (-0.000047 -0.004926 -0.000009)
 55:   1355.45   0.001754    8.86  0.000404  (-0.020093  0.000017 -0.000030)
 56:   1432.47   0.000996    5.03  0.000217  ( 0.000018  0.014731 -0.000003)
 57:   1470.51   0.002955   14.93  0.000627  ( 0.020107 -0.000115  0.014925)
 58:   1472.93   0.000936    4.73  0.000198  ( 0.000140  0.014079  0.000149)
 59:   1520.56   0.002629   13.29  0.000540  ( 0.000058 -0.023230 -0.000017)
 60:   1523.85   0.004065   20.54  0.000832  ( 0.028757  0.000027 -0.002334)
 61:   1609.05   0.001519    7.68  0.000295  ( 0.000016 -0.017164 -0.000020)
 62:   1610.16   0.000525    2.65  0.000102  ( 0.001189 -0.000006 -0.010013)
 63:   1634.79   0.000954    4.82  0.000182  ( 0.013491  0.000076 -0.000069)
 64:   1637.13   0.000262    1.32  0.000050  ( 0.000117 -0.007063  0.000003)
 65:   1657.89   0.009016   45.56  0.001697  ( 0.000003 -0.041195  0.000014)
 66:   3141.93   0.000814    4.12  0.000081  ( 0.000015  0.008993 -0.000017)
 67:   3163.08   0.000420    2.12  0.000041  ( 0.005544  0.003240 -0.000469)
 68:   3163.20   0.000429    2.17  0.000042  (-0.005686  0.003091  0.000623)
 69:   3171.24   0.000571    2.89  0.000056  ( 0.004419 -0.001209  0.005936)
 70:   3171.63   0.000644    3.25  0.000063  ( 0.000633  0.007899  0.000731)
 71:   3180.13   0.006604   33.37  0.000648  ( 0.024592 -0.005395 -0.003769)
 72:   3180.25   0.002838   14.34  0.000278  (-0.009403 -0.013728  0.001261)
 73:   3185.36   0.010590   53.52  0.001038  (-0.019620  0.000691 -0.025536)
 74:   3185.77   0.006345   32.06  0.000621  (-0.000669 -0.024911 -0.000674)
 75:   3192.24   0.003119   15.76  0.000305  (-0.017344  0.001147  0.001670)
 76:   3192.48   0.001717    8.68  0.000168  ( 0.001658  0.012847 -0.000195)
 77:   3224.15   0.002410   12.18  0.000233  (-0.015133 -0.000038  0.002071)

--------------------------
THERMOCHEMISTRY AT 298.15K
--------------------------

Temperature         ...   298.15 K
Pressure            ...     1.00 atm
Total Mass          ...   180.25 AMU
Quasi RRHO          ...     True
Cut-Off Frequency   ...     1.00 cm^-1

Throughout the following assumptions are being made:
  (1) The electronic state is orbitally nondegenerate
  (2) There are no thermally accessible electronically excited states
  (3) Hindered rotations indicated by low frequency modes are not
      treated as such but are treated as vibrations and this may
      cause some error
  (4) All equations used are the standard statistical mechanics
      equations for an ideal gas
  (5) All vibrations are strictly harmonic

freq.      60.01  E(vib)   ...       0.51
freq.     124.97  E(vib)   ...       0.43
freq.     208.12  E(vib)   ...       0.34
freq.     219.91  E(vib)   ...       0.33
freq.     291.13  E(vib)   ...       0.27
freq.     338.75  E(vib)   ...       0.23
freq.     406.86  E(vib)   ...       0.19
freq.     413.33  E(vib)   ...       0.19
freq.     441.70  E(vib)   ...       0.17
freq.     455.90  E(vib)   ...       0.16
freq.     576.79  E(vib)   ...       0.11
freq.     599.04  E(vib)   ...       0.10
freq.     624.70  E(vib)   ...       0.09
freq.     630.20  E(vib)   ...       0.09
freq.     652.68  E(vib)   ...       0.08
freq.     699.38  E(vib)   ...       0.07
freq.     705.45  E(vib)   ...       0.07
freq.     715.52  E(vib)   ...       0.07
freq.     734.90  E(vib)   ...       0.06
freq.     791.47  E(vib)   ...       0.05
freq.     800.46  E(vib)   ...       0.05
freq.     844.90  E(vib)   ...       0.04
freq.     856.86  E(vib)   ...       0.04
freq.     858.24  E(vib)   ...       0.04
freq.     929.79  E(vib)   ...       0.03
freq.     941.34  E(vib)   ...       0.03
freq.     942.00  E(vib)   ...       0.03
freq.     995.63  E(vib)   ...       0.02
freq.     998.07  E(vib)   ...       0.02
freq.    1016.07  E(vib)   ...       0.02
freq.    1016.47  E(vib)   ...       0.02
freq.    1017.70  E(vib)   ...       0.02
freq.    1018.24  E(vib)   ...       0.02
freq.    1043.85  E(vib)   ...       0.02
freq.    1045.56  E(vib)   ...       0.02
freq.    1083.97  E(vib)   ...       0.02
freq.    1098.18  E(vib)   ...       0.02
freq.    1106.23  E(vib)   ...       0.02
freq.    1165.05  E(vib)   ...       0.01
freq.    1165.27  E(vib)   ...       0.01
freq.    1173.44  E(vib)   ...       0.01
freq.    1189.49  E(vib)   ...       0.01
freq.    1191.46  E(vib)   ...       0.01
freq.    1301.07  E(vib)   ...       0.01
freq.    1319.44  E(vib)   ...       0.01
freq.    1339.11  E(vib)   ...       0.01
freq.    1352.06  E(vib)   ...       0.01
freq.    1355.45  E(vib)   ...       0.01
freq.    1432.47  E(vib)   ...       0.00
freq.    1470.51  E(vib)   ...       0.00
freq.    1472.93  E(vib)   ...       0.00
freq.    1520.56  E(vib)   ...       0.00
freq.    1523.85  E(vib)   ...       0.00
freq.    1609.05  E(vib)   ...       0.00
freq.    1610.16  E(vib)   ...       0.00
freq.    1634.79  E(vib)   ...       0.00
freq.    1637.13  E(vib)   ...       0.00
freq.    1657.89  E(vib)   ...       0.00
freq.    3141.93  E(vib)   ...       0.00
freq.    3163.08  E(vib)   ...       0.00
freq.    3163.20  E(vib)   ...       0.00
freq.    3171.24  E(vib)   ...       0.00
freq.    3171.63  E(vib)   ...       0.00
freq.    3180.13  E(vib)   ...       0.00
freq.    3180.25  E(vib)   ...       0.00
freq.    3185.36  E(vib)   ...       0.00
freq.    3185.77  E(vib)   ...       0.00
freq.    3192.24  E(vib)   ...       0.00
freq.    3192.48  E(vib)   ...       0.00
freq.    3224.15  E(vib)   ...       0.00

------------
INNER ENERGY
------------

The inner energy is: U= E(el) + E(ZPE) + E(vib) + E(rot) + E(trans)
    E(el)   - is the total energy from the electronic structure calculation
              = E(kin-el) + E(nuc-el) + E(el-el) + E(nuc-nuc)
    E(ZPE)  - the the zero temperature vibrational energy from the frequency calculation
    E(vib)  - the the finite temperature correction to E(ZPE) due to population
              of excited vibrational states
    E(rot)  - is the rotational thermal energy
    E(trans)- is the translational thermal energy

Summary of contributions to the inner energy U:
Electronic energy                ...   -540.61215546 Eh
Zero point energy                ...      0.21318417 Eh     133.77 kcal/mol
Thermal vibrational correction   ...      0.00672721 Eh       4.22 kcal/mol
Thermal rotational correction    ...      0.00141627 Eh       0.89 kcal/mol
Thermal translational correction ...      0.00141627 Eh       0.89 kcal/mol
-----------------------------------------------------------------------
Total thermal energy                   -540.38941153 Eh

Summary of corrections to the electronic energy:
(perhaps to be used in another calculation)
Total thermal correction                  0.00955976 Eh       6.00 kcal/mol
Non-thermal (ZPE) correction              0.21318417 Eh     133.77 kcal/mol
-----------------------------------------------------------------------
Total correction                          0.22274393 Eh     139.77 kcal/mol

--------
ENTHALPY
--------

The enthalpy is H = U + kB*T
                kB is Boltzmann's constant
Total thermal energy              ...   -540.38941153 Eh
Thermal Enthalpy correction       ...      0.00094421 Eh       0.59 kcal/mol
-----------------------------------------------------------------------
Total Enthalpy                    ...   -540.38846732 Eh

Note: Only C1 symmetry has been detected, increase convergence thresholds
      if your molecule has a higher symmetry. Symmetry factor of 1.0 is
      used for the rotational entropy correction.

Note: Rotational entropy computed according to Herzberg
Infrared and Raman Spectra, Chapter V,1, Van Nostrand Reinhold, 1945
Point Group:  C1, Symmetry Number:   1
Rotational constants in cm-1:     0.053487     0.014011     0.012242

Vibrational entropy computed according to the QRRHO of S. Grimme
Chem.Eur.J. 2012 18 9955 using a reference frequency of 100.0 cm-1

-------
ENTROPY
-------

The entropy contributions are T*S = T*(S(el)+S(vib)+S(rot)+S(trans))
     S(el)   - electronic entropy
     S(vib)  - vibrational entropy
     S(rot)  - rotational entropy
     S(trans)- translational entropy
The entropies will be listed as multiplied by the temperature to get
units of energy

Electronic entropy                ...      0.00000000 Eh      0.00 kcal/mol
Vibrational entropy               ...      0.01068047 Eh      6.70 kcal/mol

                             ****ORCA TERMINATED NORMALLY****
TOTAL RUN TIME: 0 days 1 hours 28 minutes 52 seconds 851 msec
