                         Program Version 6.0.0  -   RELEASE  -
|  1> !PBE0 freq def2-SV(p) d3 TightSCF SlowConv RIJCOSX defgrid2
|  2>
|  3> %pal
|  4> nprocs 12
|  5> end
|  6>
|  7> %scf
|  8> MaxIter 1500
|  9> end
| 10>
| 11> %maxcore 5000
| 12>
| 13> !CPCM
| 14> %cpcm smd true
| 15> SMDsolvent "MeCN"
| 16> surfacetype gepol_ses
| 17> rsolv 2.19
| 18> end
| 19>
| 20> * xyz 1 2
| 21> C          -0.70677220968052     -1.07413435828317     -0.00213622593063
| 22> C          -1.30108828390720      0.22209821487340     -0.00040980003664
| 23> C          -0.48677421115254      1.39832419729262     -0.00069823313553
| 24> C           0.87304683965566      1.28399243107086     -0.00072305560207
| 25> C           1.47940296189158     -0.00950103712422     -0.00083817066588
| 26> C           0.65643257887453     -1.17962710442746     -0.00227029317206
| 27> H           1.13160371688390     -2.16270761029983     -0.00291837670125
| 28> C           2.87190291345895     -0.13702908624490      0.00055317315452
| 29> C           4.08896538875348     -0.25140690598610      0.00186149042677
| 30> H           5.16518716050045     -0.34939707131398      0.00268890363654
| 31> H           1.50716855264376      2.17256848889861     -0.00096616210495
| 32> H          -0.98456052829787      2.37044494268477     -0.00001946736782
| 33> O          -2.58185551451159      0.42874192081295      0.00146126256191
| 34> C          -3.52182328346893     -0.64887147323666      0.00158117442890
| 35> H          -4.51098122968301     -0.17421228075081     -0.00074601665692
| 36> H          -3.39224638352222     -1.26133554372658     -0.90430951480123
| 37> H          -3.39541544520333     -1.25884368574134      0.90978050534919
| 38> H          -1.32644842323508     -1.97162193849816     -0.00168919338283
| 39> *
| 40>
| 41>                          ****END OF INPUT****

CARTESIAN COORDINATES (ANGSTROEM)
---------------------------------
  C     -0.706772   -1.074134   -0.002136
  C     -1.301088    0.222098   -0.000410
  C     -0.486774    1.398324   -0.000698
  C      0.873047    1.283992   -0.000723
  C      1.479403   -0.009501   -0.000838
  C      0.656433   -1.179627   -0.002270
  H      1.131604   -2.162708   -0.002918
  C      2.871903   -0.137029    0.000553
  C      4.088965   -0.251407    0.001861
  H      5.165187   -0.349397    0.002689
  H      1.507169    2.172568   -0.000966
  H     -0.984561    2.370445   -0.000019
  O     -2.581856    0.428742    0.001461
  C     -3.521823   -0.648871    0.001581
  H     -4.510981   -0.174212   -0.000746
  H     -3.392246   -1.261336   -0.904310
  H     -3.395415   -1.258844    0.909781
  H     -1.326448   -1.971622   -0.001689

 Total Charge           Charge          ....    1
 Multiplicity           Mult            ....    2
 Number of Electrons    NEL             ....   69
 Basis Dimension        Dim             ....  156

ORBITAL ENERGIES
----------------
                 SPIN UP ORBITALS
  NO   OCC          E(Eh)            E(eV)
   0   1.0000     -19.323883      -525.8296
   1   1.0000     -10.375677      -282.3365
   2   1.0000     -10.328548      -281.0541
   3   1.0000     -10.298358      -280.2326
   4   1.0000     -10.292627      -280.0766
   5   1.0000     -10.290681      -280.0237
   6   1.0000     -10.287446      -279.9356
   7   1.0000     -10.285732      -279.8890
   8   1.0000     -10.285541      -279.8838
   9   1.0000     -10.285505      -279.8828
  10   1.0000      -1.173651       -31.9367
  11   1.0000      -0.936206       -25.4754
  12   1.0000      -0.855913       -23.2906
  13   1.0000      -0.823647       -22.4126
  14   1.0000      -0.802008       -21.8237
  15   1.0000      -0.760276       -20.6882
  16   1.0000      -0.683346       -18.5948
  17   1.0000      -0.662434       -18.0257
  18   1.0000      -0.606957       -16.5161
  19   1.0000      -0.589086       -16.0298
  20   1.0000      -0.559807       -15.2331
  21   1.0000      -0.551551       -15.0085
  22   1.0000      -0.544380       -14.8133
  23   1.0000      -0.495010       -13.4699
  24   1.0000      -0.485236       -13.2039
  25   1.0000      -0.472096       -12.8464
  26   1.0000      -0.453708       -12.3460
  27   1.0000      -0.452392       -12.3102
  28   1.0000      -0.418714       -11.3938
  29   1.0000      -0.413461       -11.2508
  30   1.0000      -0.382465       -10.4074
  31   1.0000      -0.356031        -9.6881
  32   1.0000      -0.334515        -9.1026
  33   1.0000      -0.323067        -8.7911
  34   1.0000      -0.283707        -7.7201
  35   0.0000      -0.081436        -2.2160
  36   0.0000      -0.046986        -1.2785
  37   0.0000       0.011281         0.3070
  38   0.0000       0.046136         1.2554
  39   0.0000       0.069104         1.8804

                 SPIN DOWN ORBITALS
  NO   OCC          E(Eh)            E(eV)
   0   1.0000     -19.318244      -525.6762
   1   1.0000     -10.373303      -282.2719
   2   1.0000     -10.323011      -280.9034
   3   1.0000     -10.298576      -280.2385
   4   1.0000     -10.293096      -280.0894
   5   1.0000     -10.288559      -279.9659
   6   1.0000     -10.288130      -279.9543
   7   1.0000     -10.284287      -279.8497
   8   1.0000     -10.284196      -279.8472
   9   1.0000     -10.283544      -279.8294
  10   1.0000      -1.163482       -31.6600
  11   1.0000      -0.929012       -25.2797
  12   1.0000      -0.847719       -23.0676
  13   1.0000      -0.821449       -22.3528
  14   1.0000      -0.795579       -21.6488
  15   1.0000      -0.751205       -20.4413
  16   1.0000      -0.678819       -18.4716
  17   1.0000      -0.658479       -17.9181
  18   1.0000      -0.604089       -16.4381
  19   1.0000      -0.585141       -15.9225
  20   1.0000      -0.557447       -15.1689
  21   1.0000      -0.547405       -14.8957
  22   1.0000      -0.523704       -14.2507
  23   1.0000      -0.492844       -13.4110
  24   1.0000      -0.484108       -13.1733
  25   1.0000      -0.470020       -12.7899
  26   1.0000      -0.452573       -12.3151
  27   1.0000      -0.435906       -11.8616
  28   1.0000      -0.417230       -11.3534
  29   1.0000      -0.393972       -10.7205
  30   1.0000      -0.379275       -10.3206
  31   1.0000      -0.330900        -9.0042
  32   1.0000      -0.327975        -8.9246
  33   1.0000      -0.318099        -8.6559
  34   0.0000      -0.197170        -5.3653
  35   0.0000      -0.054339        -1.4786
  36   0.0000      -0.035036        -0.9534
  37   0.0000       0.013462         0.3663
  38   0.0000       0.065177         1.7736

MULLIKEN ATOMIC CHARGES AND SPIN POPULATIONS
--------------------------------------------
   0 C :   -0.152235    0.099074
   1 C :    0.288729    0.156157
   2 C :   -0.086999    0.135648
   3 C :   -0.044973   -0.093644
   4 C :    0.006543    0.384005
   5 C :   -0.032684   -0.045339
   6 H :    0.170265    0.000657
   7 C :    0.354841   -0.167084
   8 C :   -0.393651    0.381413
   9 H :    0.208126   -0.019086
  10 H :    0.168224    0.002731
  11 H :    0.169888   -0.007589
  12 O :   -0.233417    0.168259
  13 C :   -0.199716   -0.013632
  14 H :    0.197669   -0.000009
  15 H :    0.199790    0.012129
  16 H :    0.199794    0.012205
  17 H :    0.179809   -0.005894
Sum of atomic charges         :    1.0000000

LOEWDIN ATOMIC CHARGES AND SPIN POPULATIONS
-------------------------------------------
   0 C :   -0.114997    0.091361
   1 C :    0.121731    0.141338
   2 C :   -0.086024    0.116988
   3 C :   -0.054181   -0.043850
   4 C :    0.020425    0.278693
   5 C :   -0.035403   -0.006796
   6 H :    0.176708    0.000073
   7 C :   -0.003807   -0.076907
   8 C :   -0.044464    0.331535
   9 H :    0.204852   -0.011246
  10 H :    0.175633    0.001150
  11 H :    0.177229   -0.004049
  12 O :    0.012540    0.172519
  13 C :   -0.190326   -0.005402
  14 H :    0.153827   -0.000035
  15 H :    0.153359    0.008854
  16 H :    0.153452    0.008916
  17 H :    0.179446   -0.003143

  Mayer bond orders larger than 0.100000
B(  0-C ,  1-C ) :   1.1519 B(  0-C ,  5-C ) :   1.5348 B(  0-C , 17-H ) :   0.9464
B(  1-C ,  2-C ) :   1.1791 B(  1-C , 12-O ) :   1.3339 B(  2-C ,  3-C ) :   1.5302
B(  2-C , 11-H ) :   0.9534 B(  3-C ,  4-C ) :   1.1831 B(  3-C , 10-H ) :   0.9569
B(  4-C ,  5-C ) :   1.1819 B(  4-C ,  7-C ) :   1.1562 B(  5-C ,  6-H ) :   0.9529
B(  7-C ,  8-C ) :   2.2181 B(  8-C ,  9-H ) :   1.0112 B( 12-O , 13-C ) :   0.8578
B( 13-C , 14-H ) :   0.9435 B( 13-C , 15-H ) :   0.9304 B( 13-C , 16-H ) :   0.9305

Dispersion correction           -0.015970532
FINAL SINGLE POINT ENERGY      -421.908573273247

DIPOLE MOMENT
-------------

Method             : SCF
Type of density    : Electron Density
Multiplicity       :   2
Irrep              :   0
Energy             :  -421.8926027407836727 Eh
Relativity type    :
Basis              : AO
                                X                 Y                 Z
Electronic contribution:      5.217434937       1.755893713      -0.002058251
Nuclear contribution   :     -5.503369743      -2.434274145       0.002399980
                        -----------------------------------------
Total Dipole Moment    :     -0.285934806      -0.678380432       0.000341729
                        -----------------------------------------
Magnitude (a.u.)       :      0.736178538
Magnitude (Debye)      :      1.871217137

VIBRATIONAL FREQUENCIES
-----------------------

Scaling factor for frequencies =  1.000000000  (already applied!)

     0:       0.00 cm**-1
     1:       0.00 cm**-1
     2:       0.00 cm**-1
     3:       0.00 cm**-1
     4:       0.00 cm**-1
     5:       0.00 cm**-1
     6:      47.11 cm**-1
     7:     126.37 cm**-1
     8:     131.04 cm**-1
     9:     142.17 cm**-1
    10:     241.69 cm**-1
    11:     247.31 cm**-1
    12:     382.51 cm**-1
    13:     385.82 cm**-1
    14:     404.33 cm**-1
    15:     500.60 cm**-1
    16:     534.44 cm**-1
    17:     542.56 cm**-1
    18:     619.35 cm**-1
    19:     686.90 cm**-1
    20:     701.23 cm**-1
    21:     710.30 cm**-1
    22:     762.57 cm**-1
    23:     782.43 cm**-1
    24:     835.75 cm**-1
    25:     865.02 cm**-1
    26:     995.04 cm**-1
    27:    1002.37 cm**-1
    28:    1006.55 cm**-1
    29:    1043.62 cm**-1
    30:    1122.07 cm**-1
    31:    1162.29 cm**-1
    32:    1172.69 cm**-1
    33:    1203.21 cm**-1
    34:    1273.05 cm**-1
    35:    1296.54 cm**-1
    36:    1380.20 cm**-1
    37:    1399.72 cm**-1
    38:    1439.06 cm**-1
    39:    1454.57 cm**-1
    40:    1468.31 cm**-1
    41:    1505.66 cm**-1
    42:    1554.83 cm**-1
    43:    1564.72 cm**-1
    44:    1704.37 cm**-1
    45:    2130.17 cm**-1
    46:    3072.83 cm**-1
    47:    3183.22 cm**-1
    48:    3222.81 cm**-1
    49:    3239.23 cm**-1
    50:    3242.37 cm**-1
    51:    3251.85 cm**-1
    52:    3258.15 cm**-1
    53:    3430.47 cm**-1

IR SPECTRUM
-----------

 Mode   freq       eps      Int      T**2         TX        TY        TZ
       cm**-1   L/(mol*cm) km/mol    a.u.
----------------------------------------------------------------------------
  6:     47.11   0.000251    1.27  0.001664  (-0.001426 -0.001260  0.040751)
  7:    126.37   0.000638    3.23  0.001577  ( 0.012695 -0.036910 -0.007292)
  8:    131.04   0.000340    1.72  0.000810  (-0.001807  0.010732 -0.026292)
  9:    142.17   0.000004    0.02  0.000010  (-0.001749 -0.001082  0.002362)
 10:    241.69   0.003304   16.70  0.004266  (-0.000314 -0.000251 -0.065313)
 11:    247.31   0.001963    9.92  0.002477  (-0.049470 -0.005433 -0.000627)
 12:    382.51   0.000398    2.01  0.000324  ( 0.000809 -0.000327 -0.017991)
 13:    385.82   0.000028    0.14  0.000023  ( 0.004729 -0.000577 -0.000326)
 14:    404.33   0.000943    4.77  0.000728  (-0.000307 -0.000268  0.026981)
 15:    500.60   0.004344   21.95  0.002708  ( 0.039949 -0.033347 -0.000318)
 16:    534.44   0.001743    8.81  0.001018  ( 0.023243  0.021844 -0.000534)
 17:    542.56   0.001679    8.48  0.000965  (-0.000127 -0.000626 -0.031065)
 18:    619.35   0.001363    6.89  0.000687  (-0.011995 -0.023293  0.000453)
 19:    686.90   0.009469   47.85  0.004302  (-0.008192 -0.064380  0.009489)
 20:    701.23   0.006834   34.54  0.003041  ( 0.001117  0.011183  0.053992)
 21:    710.30   0.010445   52.78  0.004589  (-0.065222  0.018286  0.000731)
 22:    762.57   0.000068    0.34  0.000028  ( 0.000064 -0.000033  0.005257)
 23:    782.43   0.000134    0.67  0.000053  (-0.000245  0.000288 -0.007289)
 24:    835.75   0.002271   11.48  0.000848  ( 0.027109  0.010639  0.000187)
 25:    865.02   0.022758  115.01  0.008210  (-0.000615  0.000168  0.090607)
 26:    995.04   0.007317   36.98  0.002295  ( 0.047422 -0.006774  0.000144)
 27:   1002.37   0.000007    0.04  0.000002  (-0.001426 -0.000348 -0.000135)
 28:   1006.55   0.000009    0.05  0.000003  ( 0.000393 -0.000329  0.001630)
 29:   1043.62   0.021658  109.45  0.006476  ( 0.068512  0.042216 -0.000022)
 30:   1122.07   0.005478   27.68  0.001523  (-0.005914 -0.038581 -0.000119)
 31:   1162.29   0.000041    0.21  0.000011  ( 0.001428  0.000087  0.002995)
 32:   1172.69   0.002992   15.12  0.000796  ( 0.025493  0.012090 -0.000153)
 33:   1203.21   0.002220   11.22  0.000576  (-0.023992  0.000510 -0.000153)
 34:   1273.05   0.021096  106.61  0.005171  (-0.071901 -0.001228 -0.000043)
 35:   1296.54   0.000532    2.69  0.000128  ( 0.011112 -0.002156 -0.000008)
 36:   1380.20   0.003953   19.98  0.000894  (-0.002242 -0.029811 -0.000063)
 37:   1399.72   0.067419  340.71  0.015031  ( 0.122583  0.002089  0.000180)
 38:   1439.06   0.033478  169.18  0.007260  (-0.079407  0.030881  0.000815)
 39:   1454.57   0.005466   27.62  0.001173  (-0.003778  0.001009 -0.034019)
 40:   1468.31   0.025228  127.49  0.005362  ( 0.073153 -0.002858 -0.001514)
 41:   1505.66   0.002771   14.00  0.000574  (-0.021046 -0.011464  0.000015)
 42:   1554.83   0.036838  186.16  0.007394  ( 0.078976  0.034006 -0.000014)
 43:   1564.72   0.206002  1041.05  0.041084  (-0.201495  0.022001  0.000133)
 44:   1704.37   0.007009   35.42  0.001283  ( 0.035639  0.003645 -0.000046)
 45:   2130.17   0.267642  1352.56  0.039209  ( 0.197576 -0.013132  0.000071)
 46:   3072.83   0.004004   20.23  0.000407  (-0.019319 -0.005772 -0.000197)
 47:   3183.22   0.000207    1.05  0.000020  ( 0.000771  0.000445  0.004416)
 48:   3222.81   0.002201   11.12  0.000213  (-0.014466 -0.001974  0.000096)
 49:   3239.23   0.000259    1.31  0.000025  ( 0.000843 -0.004924 -0.000084)
 50:   3242.37   0.000007    0.04  0.000001  ( 0.000800  0.000163 -0.000011)
 51:   3251.85   0.001297    6.55  0.000124  (-0.004268 -0.010308 -0.000035)
 52:   3258.15   0.001784    9.01  0.000171  (-0.001429  0.012993  0.000049)
 53:   3430.47   0.013272   67.07  0.001207  ( 0.034593 -0.003266  0.000009)

--------------------------
THERMOCHEMISTRY AT 298.15K
--------------------------

Temperature         ...   298.15 K
Pressure            ...     1.00 atm
Total Mass          ...   132.16 AMU
Quasi RRHO          ...     True
Cut-Off Frequency   ...     1.00 cm^-1

Throughout the following assumptions are being made:
  (1) The electronic state is orbitally nondegenerate
      but the spin degeneracy is treated
  (2) There are no thermally accessible electronically excited states
  (3) Hindered rotations indicated by low frequency modes are not
      treated as such but are treated as vibrations and this may
      cause some error
  (4) All equations used are the standard statistical mechanics
      equations for an ideal gas
  (5) All vibrations are strictly harmonic

freq.      47.11  E(vib)   ...       0.53
freq.     126.37  E(vib)   ...       0.43
freq.     131.04  E(vib)   ...       0.42
freq.     142.17  E(vib)   ...       0.41
freq.     241.69  E(vib)   ...       0.31
freq.     247.31  E(vib)   ...       0.31
freq.     382.51  E(vib)   ...       0.21
freq.     385.82  E(vib)   ...       0.20
freq.     404.33  E(vib)   ...       0.19
freq.     500.60  E(vib)   ...       0.14
freq.     534.44  E(vib)   ...       0.13
freq.     542.56  E(vib)   ...       0.12
freq.     619.35  E(vib)   ...       0.09
freq.     686.90  E(vib)   ...       0.07
freq.     701.23  E(vib)   ...       0.07
freq.     710.30  E(vib)   ...       0.07
freq.     762.57  E(vib)   ...       0.06
freq.     782.43  E(vib)   ...       0.05
freq.     835.75  E(vib)   ...       0.04
freq.     865.02  E(vib)   ...       0.04
freq.     995.04  E(vib)   ...       0.02
freq.    1002.37  E(vib)   ...       0.02
freq.    1006.55  E(vib)   ...       0.02
freq.    1043.62  E(vib)   ...       0.02
freq.    1122.07  E(vib)   ...       0.01
freq.    1162.29  E(vib)   ...       0.01
freq.    1172.69  E(vib)   ...       0.01
freq.    1203.21  E(vib)   ...       0.01
freq.    1273.05  E(vib)   ...       0.01
freq.    1296.54  E(vib)   ...       0.01
freq.    1380.20  E(vib)   ...       0.01
freq.    1399.72  E(vib)   ...       0.00
freq.    1439.06  E(vib)   ...       0.00
freq.    1454.57  E(vib)   ...       0.00
freq.    1468.31  E(vib)   ...       0.00
freq.    1505.66  E(vib)   ...       0.00
freq.    1554.83  E(vib)   ...       0.00
freq.    1564.72  E(vib)   ...       0.00
freq.    1704.37  E(vib)   ...       0.00
freq.    2130.17  E(vib)   ...       0.00
freq.    3072.83  E(vib)   ...       0.00
freq.    3183.22  E(vib)   ...       0.00
freq.    3222.81  E(vib)   ...       0.00
freq.    3239.23  E(vib)   ...       0.00
freq.    3242.37  E(vib)   ...       0.00
freq.    3251.85  E(vib)   ...       0.00
freq.    3258.15  E(vib)   ...       0.00
freq.    3430.47  E(vib)   ...       0.00

------------
INNER ENERGY
------------

The inner energy is: U= E(el) + E(ZPE) + E(vib) + E(rot) + E(trans)
    E(el)   - is the total energy from the electronic structure calculation
              = E(kin-el) + E(nuc-el) + E(el-el) + E(nuc-nuc)
    E(ZPE)  - the the zero temperature vibrational energy from the frequency calculation
    E(vib)  - the the finite temperature correction to E(ZPE) due to population
              of excited vibrational states
    E(rot)  - is the rotational thermal energy
    E(trans)- is the translational thermal energy

Summary of contributions to the inner energy U:
Electronic energy                ...   -421.90857327 Eh
Zero point energy                ...      0.14222487 Eh      89.25 kcal/mol
Thermal vibrational correction   ...      0.00650541 Eh       4.08 kcal/mol
Thermal rotational correction    ...      0.00141627 Eh       0.89 kcal/mol
Thermal translational correction ...      0.00141627 Eh       0.89 kcal/mol
-----------------------------------------------------------------------
Total thermal energy                   -421.75701045 Eh

Summary of corrections to the electronic energy:
(perhaps to be used in another calculation)
Total thermal correction                  0.00933795 Eh       5.86 kcal/mol
Non-thermal (ZPE) correction              0.14222487 Eh      89.25 kcal/mol
-----------------------------------------------------------------------
Total correction                          0.15156282 Eh      95.11 kcal/mol

--------
ENTHALPY
--------

The enthalpy is H = U + kB*T
                kB is Boltzmann's constant
Total thermal energy              ...   -421.75701045 Eh
Thermal Enthalpy correction       ...      0.00094421 Eh       0.59 kcal/mol
-----------------------------------------------------------------------
Total Enthalpy                    ...   -421.75606624 Eh

Note: Only C1 symmetry has been detected, increase convergence thresholds
      if your molecule has a higher symmetry. Symmetry factor of 1.0 is
      used for the rotational entropy correction.

Note: Rotational entropy computed according to Herzberg
Infrared and Raman Spectra, Chapter V,1, Van Nostrand Reinhold, 1945
Point Group:  C1, Symmetry Number:   1
Rotational constants in cm-1:     0.156834     0.023948     0.020861

Vibrational entropy computed according to the QRRHO of S. Grimme
Chem.Eur.J. 2012 18 9955 using a reference frequency of 100.0 cm-1

-------
ENTROPY
-------

The entropy contributions are T*S = T*(S(el)+S(vib)+S(rot)+S(trans))
     S(el)   - electronic entropy
     S(vib)  - vibrational entropy
     S(rot)  - rotational entropy
     S(trans)- translational entropy
The entropies will be listed as multiplied by the temperature to get
units of energy

Electronic entropy                ...      0.00065446 Eh      0.41 kcal/mol
Vibrational entropy               ...      0.01108839 Eh      6.96 kcal/mol
Rotational entropy                ...      0.01397411 Eh      8.77 kcal/mol
Translational entropy             ...      0.01926618 Eh     12.09 kcal/mol
-----------------------------------------------------------------------
Final entropy term                ...      0.04498314 Eh     28.23 kcal/mol

In case the symmetry of your molecule has not been determined correctly
or in case you have a reason to use a different symmetry number we print
out the resulting rotational entropy values for sn=1,12:

 non-linear molecules -----------------------------------
|  sn= 1 | S(rot)=       0.01397411 Eh      8.77 kcal/mol|
|  sn= 2 | S(rot)=       0.01331965 Eh      8.36 kcal/mol|
|  sn= 3 | S(rot)=       0.01293682 Eh      8.12 kcal/mol|
|  sn= 4 | S(rot)=       0.01266520 Eh      7.95 kcal/mol|
|  sn= 5 | S(rot)=       0.01245451 Eh      7.82 kcal/mol|
|  sn= 6 | S(rot)=       0.01228236 Eh      7.71 kcal/mol|
|  sn= 7 | S(rot)=       0.01213682 Eh      7.62 kcal/mol|
|  sn= 8 | S(rot)=       0.01201074 Eh      7.54 kcal/mol|
|  sn= 9 | S(rot)=       0.01189953 Eh      7.47 kcal/mol|
|  sn=10 | S(rot)=       0.01180005 Eh      7.40 kcal/mol|
|  sn=11 | S(rot)=       0.01171006 Eh      7.35 kcal/mol|

                             ****ORCA TERMINATED NORMALLY****
TOTAL RUN TIME: 0 days 0 hours 8 minutes 45 seconds 589 msec
