                         Program Version 6.0.0  -   RELEASE  -
|  1> !B3LYP aug-cc-pVTZ d3 TightSCF SlowConv RIJCOSX defgrid2
|  2>
|  3> %pal
|  4> nprocs 4
|  5> end
|  6>
|  7> %scf
|  8> MaxIter 1500
|  9> end
| 10>
| 11> %maxcore 3000
| 12>
| 13> !CPCM
| 14> %cpcm smd true
| 15> SMDsolvent "MeCN"
| 16> surfacetype gepol_ses
| 17> rsolv 2.19
| 18> end
| 19>
| 20> * xyz 0 1
| 21>   C          -1.20570013774955     -1.10039697930563      0.01543175480109
| 22>   C           0.00111933111067     -1.79372463480323      0.03716937828290
| 23>   C           1.21118544677794     -1.10088196681091      0.03388616244552
| 24>   C           1.22835326598804      0.29682839071349      0.00494538015242
| 25>   C           2.52368903063881      1.05844071578900     -0.03593104667324
| 26>   H           2.48341162103777      1.96024689395608      0.59889265106332
| 27>   H           3.36770598220524      0.43706826741282      0.30599555459239
| 28>   H           2.75516930508487      1.39410942865254     -1.06399807973417
| 29>   C           0.00347119857744      0.97499778484913     -0.01291371518520
| 30>   C          -1.22031342403745      0.30000889914392     -0.00614524998718
| 31>   C          -2.51971268891073      1.05570005797022      0.00936042521607
| 32>   H          -2.39731022829722      2.08016889230358     -0.37956919154311
| 33>   H          -2.91823280700184      1.13851573828558      1.03779552551247
| 34>   H          -3.28893296665078      0.54842098009693     -0.59747808691160
| 35>   H           0.00394355087374      2.07111276662115     -0.03278330541863
| 36>   H           2.15666081819569     -1.65279950277184      0.05208747237142
| 37>   H           0.00027512568056     -2.88802960033678      0.05674445713596
| 38>   H          -2.15204978452320     -1.65147955576605      0.01700562287958
| 39> *
| 40>
| 41>                          ****END OF INPUT****

CARTESIAN COORDINATES (ANGSTROEM)
---------------------------------
  C     -1.205700   -1.100397    0.015432
  C      0.001119   -1.793725    0.037169
  C      1.211185   -1.100882    0.033886
  C      1.228353    0.296828    0.004945
  C      2.523689    1.058441   -0.035931
  H      2.483412    1.960247    0.598893
  H      3.367706    0.437068    0.305996
  H      2.755169    1.394109   -1.063998
  C      0.003471    0.974998   -0.012914
  C     -1.220313    0.300009   -0.006145
  C     -2.519713    1.055700    0.009360
  H     -2.397310    2.080169   -0.379569
  H     -2.918233    1.138516    1.037796
  H     -3.288933    0.548421   -0.597478
  H      0.003944    2.071113   -0.032783
  H      2.156661   -1.652800    0.052087
  H      0.000275   -2.888030    0.056744
  H     -2.152050   -1.651480    0.017006

 Total Charge           Charge          ....    0
 Multiplicity           Mult            ....    1
 Number of Electrons    NEL             ....   58
 Basis Dimension        Dim             ....  598

ORBITAL ENERGIES
----------------

  NO   OCC          E(Eh)            E(eV)
   0   2.0000     -10.181052      -277.0405
   1   2.0000     -10.180914      -277.0368
   2   2.0000     -10.171590      -276.7830
   3   2.0000     -10.166566      -276.6463
   4   2.0000     -10.166525      -276.6452
   5   2.0000     -10.165716      -276.6232
   6   2.0000     -10.161563      -276.5102
   7   2.0000     -10.161546      -276.5097
   8   2.0000      -0.855656       -23.2836
   9   2.0000      -0.776200       -21.1215
  10   2.0000      -0.753389       -20.5008
  11   2.0000      -0.682267       -18.5654
  12   2.0000      -0.671770       -18.2798
  13   2.0000      -0.590871       -16.0784
  14   2.0000      -0.564004       -15.3473
  15   2.0000      -0.495090       -13.4721
  16   2.0000      -0.464498       -12.6396
  17   2.0000      -0.436991       -11.8911
  18   2.0000      -0.417425       -11.3587
  19   2.0000      -0.404342       -11.0027
  20   2.0000      -0.403452       -10.9785
  21   2.0000      -0.397607       -10.8194
  22   2.0000      -0.384572       -10.4647
  23   2.0000      -0.364500        -9.9186
  24   2.0000      -0.343226        -9.3397
  25   2.0000      -0.333049        -9.0627
  26   2.0000      -0.329778        -8.9737
  27   2.0000      -0.247107        -6.7241
  28   2.0000      -0.238482        -6.4894
  29   0.0000      -0.012566        -0.3419
  30   0.0000      -0.008794        -0.2393
  31   0.0000      -0.002846        -0.0774
  32   0.0000       0.009610         0.2615
  33   0.0000       0.012048         0.3278

MULLIKEN ATOMIC CHARGES
-----------------------
   0 C :   -0.840406
   1 C :   -0.537926
   2 C :   -0.756729
   3 C :    1.209118
   4 C :   -0.717612
   5 H :    0.207056
   6 H :    0.208125
   7 H :    0.238573
   8 C :   -1.228375
   9 C :    1.230119
  10 C :   -0.776462
  11 H :    0.210196
  12 H :    0.237582
  13 H :    0.208273
  14 H :    0.122261
  15 H :    0.162891
  16 H :    0.587185
  17 H :    0.236130
Sum of atomic charges:   -0.0000000

LOEWDIN ATOMIC CHARGES
----------------------
   0 C :    0.193333
   1 C :    0.180351
   2 C :    0.194322
   3 C :   -0.145817
   4 C :    0.562680
   5 H :   -0.160121
   6 H :   -0.166728
   7 H :   -0.150451
   8 C :    0.216469
   9 C :   -0.145988
  10 C :    0.562576
  11 H :   -0.165780
  12 H :   -0.150233
  13 H :   -0.161271
  14 H :   -0.158643
  15 H :   -0.168492
  16 H :   -0.170860
  17 H :   -0.165346

  Mayer bond orders larger than 0.100000
B(  0-C ,  1-C ) :   1.1250 B(  0-C ,  3-C ) :  -0.1051 B(  0-C ,  9-C ) :   0.5814
B(  0-C , 10-C ) :   0.1495 B(  0-C , 17-H ) :   1.0425 B(  1-C ,  2-C ) :   1.1121
B(  1-C ,  3-C ) :   0.1532 B(  1-C ,  8-C ) :  -0.1263 B(  1-C ,  9-C ) :   0.1530
B(  1-C , 16-H ) :   0.3873 B(  2-C ,  3-C ) :   0.6097 B(  2-C , 15-H ) :   1.1843
B(  3-C ,  4-C ) :   0.3320 B(  3-C ,  8-C ) :   0.5705 B(  3-C ,  9-C ) :   0.3404
B(  4-C ,  5-H ) :   1.0065 B(  4-C ,  6-H ) :   0.9843 B(  4-C ,  7-H ) :   0.9815
B(  4-C ,  8-C ) :   0.1483 B(  8-C ,  9-C ) :   0.5963 B(  8-C , 14-H ) :   1.1598
B(  9-C , 10-C ) :   0.3284 B( 10-C , 11-H ) :   0.9960 B( 10-C , 12-H ) :   0.9824
B( 10-C , 13-H ) :   0.9983

Dispersion correction           -0.029518662
FINAL SINGLE POINT ENERGY      -310.823235013242

DIPOLE MOMENT
-------------

Method             : SCF
Type of density    : Electron Density
Multiplicity       :   1
Irrep              :   0
Energy             :  -310.7937163508913727 Eh
Relativity type    :
Basis              : AO
                                X                 Y                 Z
Electronic contribution:      0.003180754      -3.020146424       0.050832405
Nuclear contribution   :     -0.014413012       3.246643755      -0.053120895
                        -----------------------------------------
Total Dipole Moment    :     -0.011232258       0.226497332      -0.002288490
                        -----------------------------------------
Magnitude (a.u.)       :      0.226787217
Magnitude (Debye)      :      0.576447296

Rotational constants in cm-1:             0.119041             0.058741             0.039927
Rotational constants in MHz :          3568.763708          1760.997706          1196.993882

                             ****ORCA TERMINATED NORMALLY****
TOTAL RUN TIME: 0 days 0 hours 4 minutes 15 seconds 811 msec
