                         Program Version 6.0.0  -   RELEASE  -
|  1> !TPSSh aug-cc-pVTZ d3 TightSCF SlowConv RIJCOSX defgrid2
|  2>
|  3> %pal
|  4> nprocs 4
|  5> end
|  6>
|  7> %scf
|  8> MaxIter 1500
|  9> end
| 10>
| 11> %maxcore 3000
| 12>
| 13> !CPCM
| 14> %cpcm smd true
| 15> SMDsolvent "MeCN"
| 16> surfacetype gepol_ses
| 17> rsolv 2.19
| 18> end
| 19>
| 20> * xyz 0 1
| 21> C           1.36094883267894     -0.66831836744035      0.79166505304401
| 22> C           2.61668489634387     -1.26993624441883      0.83762450630671
| 23> C           3.69751463551123     -0.71498852855237      0.15220113395429
| 24> C           3.51411500210824      0.45521897470958     -0.58452696169930
| 25> C           2.26200602044100      1.06208181225052     -0.64510108123094
| 26> C           1.18681200151517      0.49836983896063      0.04263488062587
| 27> O          -0.00001482572359      1.16979071588351      0.00005454238981
| 28> C          -1.18682038085230      0.49834069380338     -0.04260530375666
| 29> C          -2.26210069770780      1.06211241497205      0.64495038697290
| 30> C          -3.51419441314783      0.45522857582203      0.58430306316011
| 31> C          -3.69749941395526     -0.71506183581738     -0.15231803955518
| 32> C          -2.61658550079969     -1.27006941979564     -0.83755825340367
| 33> C          -1.36085917884001     -0.66843361449673     -0.79152524362506
| 34> H          -0.51558365320611     -1.09715909206061     -1.33585483016717
| 35> H          -2.75062021450227     -2.18281812892327     -1.42596293506599
| 36> H          -4.68044516686291     -1.19217947086648     -0.19470697547587
| 37> H          -4.35472302990288      0.90118829684160      1.12448028512422
| 38> H          -2.09557313650778      1.97752399950586      1.21789909020225
| 39> H           2.09540249638844      1.97742680661202     -1.21813253528145
| 40> H           4.35457955862348      0.90113009122578     -1.12484535245104
| 41> H           4.68047118965145     -1.19208889118135      0.19453111833043
| 42> H           2.75079772312689     -2.18261728806241      1.42611640363857
| 43> H           0.51573555561975     -1.09698553897151      1.33613674796315
| 44> *
| 45>
| 46>                          ****END OF INPUT****

CARTESIAN COORDINATES (ANGSTROEM)
---------------------------------
  C      1.360949   -0.668318    0.791665
  C      2.616685   -1.269936    0.837625
  C      3.697515   -0.714989    0.152201
  C      3.514115    0.455219   -0.584527
  C      2.262006    1.062082   -0.645101
  C      1.186812    0.498370    0.042635
  O     -0.000015    1.169791    0.000055
  C     -1.186820    0.498341   -0.042605
  C     -2.262101    1.062112    0.644950
  C     -3.514194    0.455229    0.584303
  C     -3.697499   -0.715062   -0.152318
  C     -2.616586   -1.270069   -0.837558
  C     -1.360859   -0.668434   -0.791525
  H     -0.515584   -1.097159   -1.335855
  H     -2.750620   -2.182818   -1.425963
  H     -4.680445   -1.192179   -0.194707
  H     -4.354723    0.901188    1.124480
  H     -2.095573    1.977524    1.217899
  H      2.095402    1.977427   -1.218133
  H      4.354580    0.901130   -1.124845
  H      4.680471   -1.192089    0.194531
  H      2.750798   -2.182617    1.426116
  H      0.515736   -1.096986    1.336137

 Total Charge           Charge          ....    0
 Multiplicity           Mult            ....    1
 Number of Electrons    NEL             ....   90
 Basis Dimension        Dim             ....  828

ORBITAL ENERGIES
----------------

  NO   OCC          E(Eh)            E(eV)
   0   2.0000     -19.101063      -519.7663
   1   2.0000     -10.180386      -277.0224
   2   2.0000     -10.180370      -277.0220
   3   2.0000     -10.121140      -275.4102
   4   2.0000     -10.121127      -275.4099
   5   2.0000     -10.120947      -275.4050
   6   2.0000     -10.120933      -275.4046
   7   2.0000     -10.119320      -275.3607
   8   2.0000     -10.119306      -275.3603
   9   2.0000     -10.117785      -275.3189
  10   2.0000     -10.117773      -275.3186
  11   2.0000     -10.114569      -275.2314
  12   2.0000     -10.114558      -275.2311
  13   2.0000      -1.070786       -29.1376
  14   2.0000      -0.844569       -22.9819
  15   2.0000      -0.830094       -22.5880
  16   2.0000      -0.748899       -20.3786
  17   2.0000      -0.733275       -19.9534
  18   2.0000      -0.729209       -19.8428
  19   2.0000      -0.706427       -19.2229
  20   2.0000      -0.620973       -16.8975
  21   2.0000      -0.600658       -16.3447
  22   2.0000      -0.588631       -16.0175
  23   2.0000      -0.561717       -15.2851
  24   2.0000      -0.529755       -14.4154
  25   2.0000      -0.491078       -13.3629
  26   2.0000      -0.469663       -12.7802
  27   2.0000      -0.461086       -12.5468
  28   2.0000      -0.452711       -12.3189
  29   2.0000      -0.426706       -11.6113
  30   2.0000      -0.422502       -11.4969
  31   2.0000      -0.405702       -11.0397
  32   2.0000      -0.405079       -11.0228
  33   2.0000      -0.389622       -10.6021
  34   2.0000      -0.384798       -10.4709
  35   2.0000      -0.355651        -9.6778
  36   2.0000      -0.348227        -9.4757
  37   2.0000      -0.342922        -9.3314
  38   2.0000      -0.339915        -9.2496
  39   2.0000      -0.320531        -8.7221
  40   2.0000      -0.315296        -8.5796
  41   2.0000      -0.254153        -6.9159
  42   2.0000      -0.248082        -6.7507
  43   2.0000      -0.245755        -6.6873
  44   2.0000      -0.213621        -5.8129
  45   0.0000      -0.035755        -0.9730
  46   0.0000      -0.029431        -0.8009
  47   0.0000      -0.020893        -0.5685
  48   0.0000      -0.010453        -0.2845
  49   0.0000      -0.004342        -0.1181

MULLIKEN ATOMIC CHARGES
-----------------------
   0 C :   -0.382512
   1 C :   -0.460090
   2 C :   -0.456120
   3 C :   -0.284900
   4 C :   -1.053486
   5 C :    1.235071
   6 O :   -0.934799
   7 C :    1.231907
   8 C :   -1.052186
   9 C :   -0.289441
  10 C :   -0.458253
  11 C :   -0.459799
  12 C :   -0.381713
  13 H :    0.436162
  14 H :    0.350460
  15 H :    0.404377
  16 H :    0.334083
  17 H :    0.350395
  18 H :    0.352616
  19 H :    0.327135
  20 H :    0.405075
  21 H :    0.348306
  22 H :    0.437709
Sum of atomic charges:   -0.0000000

LOEWDIN ATOMIC CHARGES
----------------------
   0 C :    0.196847
   1 C :    0.184803
   2 C :    0.179609
   3 C :    0.178319
   4 C :    0.201721
   5 C :   -0.404086
   6 O :    0.623638
   7 C :   -0.404129
   8 C :    0.201687
   9 C :    0.178314
  10 C :    0.179620
  11 C :    0.184808
  12 C :    0.196832
  13 H :   -0.165570
  14 H :   -0.168796
  15 H :   -0.175692
  16 H :   -0.170105
  17 H :   -0.168813
  18 H :   -0.168816
  19 H :   -0.170118
  20 H :   -0.175701
  21 H :   -0.168806
  22 H :   -0.165567

  Mayer bond orders larger than 0.100000
B(  0-C ,  1-C ) :   1.3558 B(  0-C ,  4-C ) :   0.3310 B(  0-C ,  5-C ) :   1.0603
B(  0-C ,  7-C ) :  -0.1137 B(  0-C , 12-C ) :   0.3104 B(  0-C , 22-H ) :   0.4709
B(  1-C ,  2-C ) :   1.4360 B(  1-C ,  4-C ) :  -0.1053 B(  1-C ,  5-C ) :  -0.2902
B(  1-C , 21-H ) :   0.7443 B(  2-C ,  3-C ) :   1.4491 B(  2-C ,  4-C ) :   0.3894
B(  2-C , 20-H ) :   0.5528 B(  3-C ,  4-C ) :   1.4708 B(  3-C ,  5-C ) :  -0.3335
B(  3-C , 19-H ) :   0.7386 B(  4-C ,  5-C ) :   0.5251 B(  4-C ,  6-O ) :   0.2742
B(  4-C , 18-H ) :   0.4069 B(  4-C , 19-H ) :   0.1286 B(  5-C ,  6-O ) :   0.3145
B(  5-C , 12-C ) :  -0.1117 B(  5-C , 18-H ) :   0.1133 B(  6-O ,  7-C ) :   0.3122
B(  6-O ,  8-C ) :   0.2747 B(  7-C ,  8-C ) :   0.5252 B(  7-C ,  9-C ) :  -0.3335
B(  7-C , 11-C ) :  -0.2887 B(  7-C , 12-C ) :   1.0602 B(  7-C , 17-H ) :   0.1127
B(  8-C ,  9-C ) :   1.4698 B(  8-C , 10-C ) :   0.3888 B(  8-C , 11-C ) :  -0.1065
B(  8-C , 12-C ) :   0.3291 B(  8-C , 16-H ) :   0.1265 B(  8-C , 17-H ) :   0.4096
B(  9-C , 10-C ) :   1.4506 B(  9-C , 16-H ) :   0.7312 B( 10-C , 11-C ) :   1.4365
B( 10-C , 15-H ) :   0.5538 B( 11-C , 12-C ) :   1.3554 B( 11-C , 14-H ) :   0.7402
B( 12-C , 13-H ) :   0.4726

Dispersion correction           -0.031414590
FINAL SINGLE POINT ENERGY      -538.779801040252

DIPOLE MOMENT
-------------

Method             : SCF
Type of density    : Electron Density
Multiplicity       :   1
Irrep              :   0
Energy             :  -538.7483864503238919 Eh
Relativity type    :
Basis              : AO
                                X                 Y                 Z
Electronic contribution:     -0.000185989       2.491799804      -0.000060589
Nuclear contribution   :      0.000034886      -2.982425974      -0.000176877
                        -----------------------------------------
Total Dipole Moment    :     -0.000151103      -0.490626170      -0.000237465
                        -----------------------------------------
Magnitude (a.u.)       :      0.490626251
Magnitude (Debye)      :      1.247072823

Rotational constants in cm-1:             0.080234             0.014509             0.013552
Rotational constants in MHz :          2405.352266           434.979833           406.266844

                             ****ORCA TERMINATED NORMALLY****
TOTAL RUN TIME: 0 days 0 hours 7 minutes 0 seconds 587 msec
