                         Program Version 6.0.0  -   RELEASE  -
|  1> !B3LYP aug-cc-pVTZ d3 TightSCF SlowConv RIJCOSX defgrid2
|  2>
|  3> %pal
|  4> nprocs 4
|  5> end
|  6>
|  7> %scf
|  8> MaxIter 1500
|  9> end
| 10>
| 11> %maxcore 3000
| 12>
| 13> !CPCM
| 14> %cpcm smd true
| 15> SMDsolvent "MeCN"
| 16> surfacetype gepol_ses
| 17> rsolv 2.19
| 18> end
| 19>
| 20> * xyz 1 2
| 21>   C           0.32102019331516     -1.19542386061728     -0.14148513269053
| 22>   N           1.10243703742587      0.00016587284657     -0.03493498389965
| 23>   H           2.12790837562502      0.00032492444948     -0.06391998039902
| 24>   C           0.32776853288643      1.19559735299303      0.11419545489126
| 25>   C          -1.10184122089178      0.73960306514008     -0.17705770971163
| 26>   C          -1.09090160245375     -0.73957390726683      0.22597738884058
| 27>   H          -1.24513402062308     -0.85614376606510      1.31228662008834
| 28>   H          -1.86247558532270     -1.33277654839199     -0.28577641973945
| 29>   H          -1.84489899623950      1.33262955312356      0.37546884555940
| 30>   H          -1.31417979146215      0.85631071138639     -1.25352523011859
| 31>   H           0.74060448118867      2.00031005458115     -0.52340635871813
| 32>   H           0.46483350827758      1.54453868347447      1.16584085187759
| 33>   H           0.40187216908273     -1.54535148914433     -1.19859107684141
| 34>   H           0.76758011919150     -1.99962684650920      0.47372433086124
| 35> *
| 36>
| 37>                          ****END OF INPUT****

CARTESIAN COORDINATES (ANGSTROEM)
---------------------------------
  C      0.321020   -1.195424   -0.141485
  N      1.102437    0.000166   -0.034935
  H      2.127908    0.000325   -0.063920
  C      0.327769    1.195597    0.114195
  C     -1.101841    0.739603   -0.177058
  C     -1.090902   -0.739574    0.225977
  H     -1.245134   -0.856144    1.312287
  H     -1.862476   -1.332777   -0.285776
  H     -1.844899    1.332630    0.375469
  H     -1.314180    0.856311   -1.253525
  H      0.740604    2.000310   -0.523406
  H      0.464834    1.544539    1.165841
  H      0.401872   -1.545351   -1.198591
  H      0.767580   -1.999627    0.473724

 Total Charge           Charge          ....    1
 Multiplicity           Mult            ....    2
 Number of Electrons    NEL             ....   39
 Basis Dimension        Dim             ....  437

ORBITAL ENERGIES
----------------
                 SPIN UP ORBITALS
  NO   OCC          E(Eh)            E(eV)
   0   1.0000     -14.448291      -393.1580
   1   1.0000     -10.238100      -278.5929
   2   1.0000     -10.237996      -278.5900
   3   1.0000     -10.188302      -277.2378
   4   1.0000     -10.188077      -277.2317
   5   1.0000      -1.018562       -27.7165
   6   1.0000      -0.801774       -21.8174
   7   1.0000      -0.775077       -21.0909
   8   1.0000      -0.638516       -17.3749
   9   1.0000      -0.616631       -16.7794
  10   1.0000      -0.576716       -15.6932
  11   1.0000      -0.537665       -14.6306
  12   1.0000      -0.466548       -12.6954
  13   1.0000      -0.452439       -12.3115
  14   1.0000      -0.431752       -11.7486
  15   1.0000      -0.427256       -11.6262
  16   1.0000      -0.377389       -10.2693
  17   1.0000      -0.370203       -10.0737
  18   1.0000      -0.343806        -9.3554
  19   1.0000      -0.312471        -8.5028
  20   0.0000      -0.010659        -0.2900
  21   0.0000       0.009915         0.2698
  22   0.0000       0.010062         0.2738
  23   0.0000       0.012547         0.3414
  24   0.0000       0.030924         0.8415

                 SPIN DOWN ORBITALS
  NO   OCC          E(Eh)            E(eV)
   0   1.0000     -14.430169      -392.6649
   1   1.0000     -10.238358      -278.5999
   2   1.0000     -10.238251      -278.5970
   3   1.0000     -10.188205      -277.2351
   4   1.0000     -10.187979      -277.2290
   5   1.0000      -0.987423       -26.8692
   6   1.0000      -0.792785       -21.5728
   7   1.0000      -0.769928       -20.9508
   8   1.0000      -0.628729       -17.1086
   9   1.0000      -0.613362       -16.6904
  10   1.0000      -0.566291       -15.4096
  11   1.0000      -0.513325       -13.9683
  12   1.0000      -0.450783       -12.2664
  13   1.0000      -0.439833       -11.9685
  14   1.0000      -0.423972       -11.5369
  15   1.0000      -0.411936       -11.2094
  16   1.0000      -0.376373       -10.2416
  17   1.0000      -0.368811       -10.0359
  18   1.0000      -0.339791        -9.2462
  19   0.0000      -0.169658        -4.6166
  20   0.0000      -0.009827        -0.2674
  21   0.0000       0.010572         0.2877
  22   0.0000       0.010690         0.2909
  23   0.0000       0.012857         0.3499

MULLIKEN ATOMIC CHARGES AND SPIN POPULATIONS
--------------------------------------------
   0 C :   -0.213603   -0.029147
   1 N :    0.027239    0.818424
   2 H :    0.141741   -0.021998
   3 C :   -0.216340   -0.029355
   4 C :   -0.234543    0.010201
   5 C :   -0.236478    0.010029
   6 H :    0.156841    0.000891
   7 H :    0.222007   -0.001958
   8 H :    0.221852   -0.001965
   9 H :    0.157076    0.000889
  10 H :    0.281232    0.038161
  11 H :    0.206268    0.083727
  12 H :    0.206071    0.083694
  13 H :    0.280639    0.038407
Sum of atomic charges         :    1.0000000

LOEWDIN ATOMIC CHARGES AND SPIN POPULATIONS
-------------------------------------------
   0 C :    0.291119    0.125532
   1 N :    0.713218    0.528864
   2 H :   -0.137684    0.067383
   3 C :    0.290884    0.125396
   4 C :    0.324784    0.006726
   5 C :    0.324866    0.006675
   6 H :   -0.119180    0.001378
   7 H :   -0.117846   -0.000222
   8 H :   -0.118019   -0.000215
   9 H :   -0.118937    0.001385
  10 H :   -0.087957    0.024286
  11 H :   -0.078751    0.044182
  12 H :   -0.078527    0.044213
  13 H :   -0.087970    0.024418

  Mayer bond orders larger than 0.100000
B(  0-C ,  1-N ) :   0.8933 B(  0-C ,  5-C ) :   0.9273 B(  0-C , 12-H ) :   0.9310
B(  0-C , 13-H ) :   0.8907 B(  1-N ,  2-H ) :   1.0122 B(  1-N ,  3-C ) :   0.8919
B(  3-C ,  4-C ) :   0.9273 B(  3-C , 10-H ) :   0.8916 B(  3-C , 11-H ) :   0.9314
B(  4-C ,  5-C ) :   0.9224 B(  4-C ,  8-H ) :   0.9561 B(  4-C ,  9-H ) :   0.9968
B(  5-C ,  6-H ) :   0.9965 B(  5-C ,  7-H ) :   0.9567

Dispersion correction           -0.017582031
FINAL SINGLE POINT ENERGY      -212.355203220325

DIPOLE MOMENT
-------------

Method             : SCF
Type of density    : Electron Density
Multiplicity       :   2
Irrep              :   0
Energy             :  -212.3376211891562377 Eh
Relativity type    :
Basis              : AO
                                X                 Y                 Z
Electronic contribution:      2.511117562      -0.001219447      -0.071811787
Nuclear contribution   :     -1.068975804      -0.000388057       0.028795519
                        -----------------------------------------
Total Dipole Moment    :      1.442141759      -0.001607504      -0.043016268
                        -----------------------------------------
Magnitude (a.u.)       :      1.442784057
Magnitude (Debye)      :      3.667265631

Rotational constants in cm-1:             0.231930             0.228924             0.129807
Rotational constants in MHz :          6953.078056          6862.972212          3891.510295

                             ****ORCA TERMINATED NORMALLY****
TOTAL RUN TIME: 0 days 0 hours 2 minutes 13 seconds 715 msec
