                         Program Version 6.0.0  -   RELEASE  -
|  1> !r2SCANh aug-cc-pVTZ d3 TightSCF SlowConv RIJCOSX defgrid2
|  2>
|  3> %pal
|  4> nprocs 4
|  5> end
|  6>
|  7> %scf
|  8> MaxIter 1500
|  9> end
| 10>
| 11> %maxcore 3000
| 12>
| 13> !CPCM
| 14> %cpcm smd true
| 15> SMDsolvent "MeCN"
| 16> surfacetype gepol_ses
| 17> rsolv 2.19
| 18> end
| 19>
| 20> * xyz 0 1
| 21> N           0.15975924296332      0.12445058338132      0.31604288059979
| 22> C          -1.19113288858807     -0.03866597413313      0.81654672996346
| 23> C          -2.31404669003534     -0.01392479742617     -0.22115980972317
| 24> H          -3.29712795220661     -0.11050189519336      0.27216270478690
| 25> H          -2.22374427381768     -0.84298980217516     -0.94495572722258
| 26> H          -2.31766293194652      0.93130971057126     -0.79241152719390
| 27> H          -1.24118777155842     -0.98367549326804      1.38531777446702
| 28> H          -1.36414427314090      0.76090167006913      1.55962872548440
| 29> C           0.62547089775175     -0.92869162394065     -0.56188129632475
| 30> C           0.59510137492734     -2.31310993961179      0.06527507131526
| 31> H          -0.43217334595978     -2.68538495815961      0.21937250172711
| 32> H           1.11073003856311     -3.03735318800821     -0.58821336851619
| 33> H           1.10594756855008     -2.30061285180890      1.04369021631712
| 34> H           0.06636480368987     -0.94738167933480     -1.52902550894480
| 35> H           1.66989109901219     -0.69687695874228     -0.82974302531472
| 36> C           0.44663628376999      1.45259534411955     -0.18717965378079
| 37> C           1.91168679391593      1.84575888559843     -0.05684387193733
| 38> H           2.57178979071434      1.21847816004489     -0.68008856196741
| 39> H           2.23976832497324      1.74559120055302      0.99176343824238
| 40> H           2.05890339514312      2.89253491311342     -0.37523787624847
| 41> H           0.12405895964874      1.58040814853664     -1.24813910560320
| 42> H          -0.15649294636972      2.16687674581443      0.40066148987389
| 43> *
| 44>
| 45>                          ****END OF INPUT****

CARTESIAN COORDINATES (ANGSTROEM)
---------------------------------
  N      0.159759    0.124451    0.316043
  C     -1.191133   -0.038666    0.816547
  C     -2.314047   -0.013925   -0.221160
  H     -3.297128   -0.110502    0.272163
  H     -2.223744   -0.842990   -0.944956
  H     -2.317663    0.931310   -0.792412
  H     -1.241188   -0.983675    1.385318
  H     -1.364144    0.760902    1.559629
  C      0.625471   -0.928692   -0.561881
  C      0.595101   -2.313110    0.065275
  H     -0.432173   -2.685385    0.219373
  H      1.110730   -3.037353   -0.588213
  H      1.105948   -2.300613    1.043690
  H      0.066365   -0.947382   -1.529026
  H      1.669891   -0.696877   -0.829743
  C      0.446636    1.452595   -0.187180
  C      1.911687    1.845759   -0.056844
  H      2.571790    1.218478   -0.680089
  H      2.239768    1.745591    0.991763
  H      2.058903    2.892535   -0.375238
  H      0.124059    1.580408   -1.248139
  H     -0.156493    2.166877    0.400661

 Total Charge           Charge          ....    0
 Multiplicity           Mult            ....    1
 Number of Electrons    NEL             ....   58
 Basis Dimension        Dim             ....  667

ORBITAL ENERGIES
----------------

  NO   OCC          E(Eh)            E(eV)
   0   2.0000     -14.286473      -388.7547
   1   2.0000     -10.168765      -276.7062
   2   2.0000     -10.168073      -276.6873
   3   2.0000     -10.167531      -276.6726
   4   2.0000     -10.137358      -275.8515
   5   2.0000     -10.136150      -275.8187
   6   2.0000     -10.134891      -275.7844
   7   2.0000      -0.920511       -25.0484
   8   2.0000      -0.752738       -20.4830
   9   2.0000      -0.747391       -20.3375
  10   2.0000      -0.695406       -18.9230
  11   2.0000      -0.622796       -16.9471
  12   2.0000      -0.605856       -16.4862
  13   2.0000      -0.535063       -14.5598
  14   2.0000      -0.473319       -12.8797
  15   2.0000      -0.459779       -12.5112
  16   2.0000      -0.437054       -11.8929
  17   2.0000      -0.420526       -11.4431
  18   2.0000      -0.394961       -10.7474
  19   2.0000      -0.382562       -10.4100
  20   2.0000      -0.373760       -10.1705
  21   2.0000      -0.358394        -9.7524
  22   2.0000      -0.351733        -9.5711
  23   2.0000      -0.343350        -9.3430
  24   2.0000      -0.330735        -8.9997
  25   2.0000      -0.322952        -8.7880
  26   2.0000      -0.313206        -8.5228
  27   2.0000      -0.302180        -8.2227
  28   2.0000      -0.193696        -5.2707
  29   0.0000       0.012996         0.3536
  30   0.0000       0.024168         0.6576
  31   0.0000       0.024591         0.6692
  32   0.0000       0.027663         0.7527
  33   0.0000       0.045842         1.2474

MULLIKEN ATOMIC CHARGES
-----------------------
   0 N :    0.011609
   1 C :   -0.208624
   2 C :   -0.705147
   3 H :    0.178490
   4 H :    0.224898
   5 H :    0.203021
   6 H :    0.068891
   7 H :    0.265054
   8 C :   -0.156953
   9 C :   -0.816621
  10 H :    0.249920
  11 H :    0.107221
  12 H :    0.209378
  13 H :    0.081055
  14 H :    0.388697
  15 C :   -0.256208
  16 C :   -0.899267
  17 H :    0.238326
  18 H :    0.189266
  19 H :    0.144335
  20 H :    0.166068
  21 H :    0.316594
Sum of atomic charges:    0.0000000

LOEWDIN ATOMIC CHARGES
----------------------
   0 N :    0.262713
   1 C :    0.126284
   2 C :    0.578412
   3 H :   -0.161036
   4 H :   -0.168735
   5 H :   -0.163330
   6 H :   -0.157789
   7 H :   -0.141503
   8 C :    0.110458
   9 C :    0.574093
  10 H :   -0.171682
  11 H :   -0.158708
  12 H :   -0.155337
  13 H :   -0.127559
  14 H :   -0.162924
  15 C :    0.108761
  16 C :    0.578342
  17 H :   -0.177324
  18 H :   -0.160707
  19 H :   -0.161655
  20 H :   -0.124466
  21 H :   -0.146307

  Mayer bond orders larger than 0.100000
B(  0-N ,  1-C ) :   0.8904 B(  0-N ,  8-C ) :   0.7658 B(  0-N , 15-C ) :   0.9184
B(  1-C ,  2-C ) :   0.7270 B(  1-C ,  6-H ) :   1.0601 B(  1-C ,  7-H ) :   0.8895
B(  2-C ,  3-H ) :   0.9954 B(  2-C ,  4-H ) :   0.9553 B(  2-C ,  5-H ) :   0.9777
B(  8-C ,  9-C ) :   0.7574 B(  8-C , 13-H ) :   1.0479 B(  8-C , 14-H ) :   0.7764
B(  8-C , 15-C ) :   0.1121 B(  9-C , 10-H ) :   0.9197 B(  9-C , 11-H ) :   1.1349
B(  9-C , 12-H ) :   0.9796 B( 15-C , 16-C ) :   0.6987 B( 15-C , 20-H ) :   0.9904
B( 15-C , 21-H ) :   0.8530 B( 16-C , 17-H ) :   0.9801 B( 16-C , 18-H ) :   1.0114
B( 16-C , 19-H ) :   1.0841

Dispersion correction           -0.005859620
FINAL SINGLE POINT ENERGY      -292.331652582950

DIPOLE MOMENT
-------------

Method             : SCF
Type of density    : Electron Density
Multiplicity       :   1
Irrep              :   0
Energy             :  -292.3257929626555551 Eh
Relativity type    :
Basis              : AO
                                X                 Y                 Z
Electronic contribution:      0.282459145       0.535738284       1.019174371
Nuclear contribution   :     -0.501506717      -0.494754897      -1.261304975
                        -----------------------------------------
Total Dipole Moment    :     -0.219047572       0.040983387      -0.242130604
                        -----------------------------------------
Magnitude (a.u.)       :      0.329072494
Magnitude (Debye)      :      0.836435808

Rotational constants in cm-1:             0.094674             0.067966             0.045296
Rotational constants in MHz :          2838.248460          2037.567031          1357.933108

                             ****ORCA TERMINATED NORMALLY****
TOTAL RUN TIME: 0 days 0 hours 6 minutes 28 seconds 886 msec
