                         Program Version 6.0.0  -   RELEASE  -
|  1> !B3LYP aug-cc-pVTZ d3 TightSCF SlowConv RIJCOSX defgrid2
|  2>
|  3> %pal
|  4> nprocs 4
|  5> end
|  6>
|  7> %scf
|  8> MaxIter 1500
|  9> end
| 10>
| 11> %maxcore 3000
| 12>
| 13> !CPCM
| 14> %cpcm smd true
| 15> SMDsolvent "MeCN"
| 16> surfacetype gepol_ses
| 17> rsolv 2.19
| 18> end
| 19>
| 20> * xyz 1 2
| 21>   C          -0.51166320460813      1.22812669775511      0.04221064338961
| 22>   C          -1.88952625296000      1.21539539176763      0.05617367919047
| 23>   C          -2.59180844712688      0.00013116204188     -0.01880666295911
| 24>   C          -1.89049624956733     -1.21520671526456     -0.10134329816321
| 25>   C          -0.51256019966680     -1.22809524037907     -0.10227638476799
| 26>   C           0.21731408963535     -0.00001586789402     -0.03400404554273
| 27>   N           1.56995492990017     -0.00005133599829     -0.04140778831312
| 28>   C           2.34433477639579      1.21948603186316     -0.20492690765417
| 29>   H           3.31457999055289      0.96026373998418     -0.65302403936483
| 30>   H           1.83135324244622      1.92816869292227     -0.86818407839005
| 31>   H           2.52747752953805      1.69293789980228      0.77768636738438
| 32>   C           2.34605804905977     -1.21960114143284      0.11365277395931
| 33>   H           3.32105951761834     -0.96038019427341      0.55132163130194
| 34>   H           1.84024142677529     -1.92835608634421      0.78230594720200
| 35>   H           2.51862728476156     -1.69296466175821     -0.87090867989595
| 36>   H           0.01065172080766     -2.18040178328804     -0.19486548078037
| 37>   H          -2.43851884091908     -2.15821605280130     -0.17289394083341
| 38>   H          -3.68523926435270      0.00018625586019     -0.01289591193808
| 39>   H          -2.43664007610670      2.15846249523866      0.13367176321164
| 40>   H           0.01262657781651      2.18036711219859      0.12915381296366
| 41> *
| 42>
| 43>                          ****END OF INPUT****

CARTESIAN COORDINATES (ANGSTROEM)
---------------------------------
  C     -0.511663    1.228127    0.042211
  C     -1.889526    1.215395    0.056174
  C     -2.591808    0.000131   -0.018807
  C     -1.890496   -1.215207   -0.101343
  C     -0.512560   -1.228095   -0.102276
  C      0.217314   -0.000016   -0.034004
  N      1.569955   -0.000051   -0.041408
  C      2.344335    1.219486   -0.204927
  H      3.314580    0.960264   -0.653024
  H      1.831353    1.928169   -0.868184
  H      2.527478    1.692938    0.777686
  C      2.346058   -1.219601    0.113653
  H      3.321060   -0.960380    0.551322
  H      1.840241   -1.928356    0.782306
  H      2.518627   -1.692965   -0.870909
  H      0.010652   -2.180402   -0.194865
  H     -2.438519   -2.158216   -0.172894
  H     -3.685239    0.000186   -0.012896
  H     -2.436640    2.158462    0.133672
  H      0.012627    2.180367    0.129154

 Total Charge           Charge          ....    1
 Multiplicity           Mult            ....    2
 Number of Electrons    NEL             ....   65
 Basis Dimension        Dim             ....  667

ORBITAL ENERGIES
----------------
                 SPIN UP ORBITALS
  NO   OCC          E(Eh)            E(eV)
   0   1.0000     -14.435129      -392.7998
   1   1.0000     -10.264028      -279.2984
   2   1.0000     -10.221764      -278.1483
   3   1.0000     -10.221721      -278.1472
   4   1.0000     -10.214234      -277.9434
   5   1.0000     -10.213835      -277.9326
   6   1.0000     -10.213817      -277.9321
   7   1.0000     -10.202061      -277.6122
   8   1.0000     -10.202058      -277.6121
   9   1.0000      -1.021638       -27.8002
  10   1.0000      -0.881335       -23.9823
  11   1.0000      -0.785548       -21.3759
  12   1.0000      -0.784718       -21.3533
  13   1.0000      -0.747397       -20.3377
  14   1.0000      -0.699781       -19.0420
  15   1.0000      -0.629860       -17.1394
  16   1.0000      -0.604781       -16.4569
  17   1.0000      -0.561782       -15.2869
  18   1.0000      -0.516515       -14.0551
  19   1.0000      -0.515190       -14.0190
  20   1.0000      -0.507510       -13.8100
  21   1.0000      -0.466922       -12.7056
  22   1.0000      -0.455422       -12.3926
  23   1.0000      -0.450406       -12.2562
  24   1.0000      -0.424324       -11.5464
  25   1.0000      -0.420183       -11.4338
  26   1.0000      -0.407278       -11.0826
  27   1.0000      -0.396442       -10.7877
  28   1.0000      -0.387198       -10.5362
  29   1.0000      -0.363411        -9.8889
  30   1.0000      -0.339465        -9.2373
  31   1.0000      -0.290983        -7.9181
  32   1.0000      -0.251957        -6.8561
  33   0.0000      -0.039698        -1.0802
  34   0.0000      -0.035637        -0.9697
  35   0.0000      -0.009174        -0.2496
  36   0.0000       0.005145         0.1400
  37   0.0000       0.009107         0.2478

                 SPIN DOWN ORBITALS
  NO   OCC          E(Eh)            E(eV)
   0   1.0000     -14.423804      -392.4917
   1   1.0000     -10.264937      -279.3231
   2   1.0000     -10.222156      -278.1590
   3   1.0000     -10.222113      -278.1578
   4   1.0000     -10.210857      -277.8516
   5   1.0000     -10.210840      -277.8511
   6   1.0000     -10.209861      -277.8244
   7   1.0000     -10.203459      -277.6502
   8   1.0000     -10.203448      -277.6499
   9   1.0000      -1.003581       -27.3088
  10   1.0000      -0.875321       -23.8187
  11   1.0000      -0.781281       -21.2597
  12   1.0000      -0.780110       -21.2279
  13   1.0000      -0.745444       -20.2846
  14   1.0000      -0.691752       -18.8235
  15   1.0000      -0.626779       -17.0555
  16   1.0000      -0.599941       -16.3252
  17   1.0000      -0.557901       -15.1813
  18   1.0000      -0.512500       -13.9458
  19   1.0000      -0.503284       -13.6950
  20   1.0000      -0.489530       -13.3208
  21   1.0000      -0.465884       -12.6773
  22   1.0000      -0.451605       -12.2888
  23   1.0000      -0.449453       -12.2302
  24   1.0000      -0.419434       -11.4134
  25   1.0000      -0.417961       -11.3733
  26   1.0000      -0.398292       -10.8381
  27   1.0000      -0.391761       -10.6604
  28   1.0000      -0.385113       -10.4794
  29   1.0000      -0.361639        -9.8407
  30   1.0000      -0.311722        -8.4824
  31   1.0000      -0.282821        -7.6960
  32   0.0000      -0.166036        -4.5181
  33   0.0000      -0.030146        -0.8203
  34   0.0000      -0.016294        -0.4434
  35   0.0000      -0.008838        -0.2405
  36   0.0000       0.005269         0.1434

MULLIKEN ATOMIC CHARGES AND SPIN POPULATIONS
--------------------------------------------
   0 C :   -0.444868    0.198509
   1 C :   -0.643091   -0.086567
   2 C :   -0.480306    0.292172
   3 C :   -0.642095   -0.086596
   4 C :   -0.445296    0.198593
   5 C :    1.381727   -0.000177
   6 N :   -0.042058    0.455660
   7 C :   -0.765775   -0.026664
   8 H :    0.270374    0.010697
   9 H :    0.270336    0.004649
  10 H :    0.285479    0.031741
  11 C :   -0.766374   -0.026715
  12 H :    0.269848    0.010717
  13 H :    0.270373    0.004631
  14 H :    0.285688    0.031781
  15 H :    0.411962   -0.008333
  16 H :    0.435471    0.000503
  17 H :    0.498235    0.003204
  18 H :    0.437551    0.000507
  19 H :    0.412819   -0.008313
Sum of atomic charges         :    1.0000000

LOEWDIN ATOMIC CHARGES AND SPIN POPULATIONS
-------------------------------------------
   0 C :    0.267126    0.093767
   1 C :    0.238564    0.029178
   2 C :    0.246755    0.138533
   3 C :    0.238558    0.029185
   4 C :    0.267102    0.093775
   5 C :   -0.151115    0.086260
   6 N :    0.306055    0.310074
   7 C :    0.559523    0.052114
   8 H :   -0.130728    0.005286
   9 H :   -0.145553    0.006284
  10 H :   -0.102486    0.016729
  11 C :    0.559513    0.052116
  12 H :   -0.130705    0.005289
  13 H :   -0.145595    0.006280
  14 H :   -0.102500    0.016727
  15 H :   -0.163364    0.019572
  16 H :   -0.150408   -0.007083
  17 H :   -0.147016    0.033431
  18 H :   -0.150409   -0.007085
  19 H :   -0.163319    0.019569

  Mayer bond orders larger than 0.100000
B(  0-C ,  1-C ) :   1.2206 B(  0-C ,  2-C ) :   0.2308 B(  0-C ,  4-C ) :   0.2191
B(  0-C ,  5-C ) :   0.4455 B(  0-C ,  6-N ) :  -0.1726 B(  0-C , 19-H ) :   0.5588
B(  1-C ,  2-C ) :   1.1265 B(  1-C ,  5-C ) :  -0.3316 B(  1-C , 18-H ) :   0.6788
B(  2-C ,  3-C ) :   1.1250 B(  2-C ,  4-C ) :   0.2294 B(  2-C ,  5-C ) :  -0.1791
B(  2-C , 17-H ) :   0.5501 B(  3-C ,  4-C ) :   1.2201 B(  3-C ,  5-C ) :  -0.3356
B(  3-C , 16-H ) :   0.6819 B(  4-C ,  5-C ) :   0.4410 B(  4-C ,  6-N ) :  -0.1747
B(  4-C , 15-H ) :   0.5618 B(  5-C ,  6-N ) :   0.7657 B(  5-C ,  7-C ) :  -0.1470
B(  5-C , 11-C ) :  -0.1475 B(  6-N ,  7-C ) :   1.0810 B(  6-N , 11-C ) :   1.0821
B(  7-C ,  8-H ) :   0.9156 B(  7-C ,  9-H ) :   0.9566 B(  7-C , 10-H ) :   0.9056
B( 11-C , 12-H ) :   0.9160 B( 11-C , 13-H ) :   0.9569 B( 11-C , 14-H ) :   0.9058

Dispersion correction           -0.034322872
FINAL SINGLE POINT ENERGY      -365.975362974802

DIPOLE MOMENT
-------------

Method             : SCF
Type of density    : Electron Density
Multiplicity       :   2
Irrep              :   0
Energy             :  -365.9410401029649051 Eh
Relativity type    :
Basis              : AO
                                X                 Y                 Z
Electronic contribution:     -5.072802870       0.000506469       0.027830402
Nuclear contribution   :      6.490918904      -0.000107030      -0.035404468
                        -----------------------------------------
Total Dipole Moment    :      1.418116034       0.000399439      -0.007574066
                        -----------------------------------------
Magnitude (a.u.)       :      1.418136316
Magnitude (Debye)      :      3.604616052

Rotational constants in cm-1:             0.115459             0.040921             0.030704
Rotational constants in MHz :          3461.380126          1226.789981           920.471270

                             ****ORCA TERMINATED NORMALLY****
TOTAL RUN TIME: 0 days 0 hours 7 minutes 18 seconds 197 msec
