                         Program Version 6.0.0  -   RELEASE  -
|  1> !PBE0 def2-SV(p) Opt Freq d3 TightSCF SlowConv RIJCOSX defgrid2
|  2>
|  3> %pal
|  4> nprocs 4
|  5> end
|  6>
|  7> %scf
|  8> MaxIter 1500
|  9> end
| 10>
| 11> %maxcore 3000
| 12>
| 13>
| 14>
| 15> * xyz 0 1
| 16> C     0.4374740   -0.5560350   -0.1280729
| 17> C     1.5094635   -1.4312305    0.0474751
| 18> C     2.8051425   -0.9705553    0.1769128
| 19> C     3.0602183    0.3904340    0.1101314
| 20> C     2.0123488    1.2719064   -0.0676413
| 21> C     0.6934723    0.8270424   -0.1661222
| 22> C    -0.3582373    1.8353560   -0.2800543
| 23> C    -1.5644325    1.7723725    0.2768041
| 24> C    -2.5973534    2.8429145    0.1707590
| 25> H    -3.5108715    2.4396718   -0.2663072
| 26> H    -2.8491590    3.2201637    1.1618739
| 27> H    -2.2466390    3.6690526   -0.4431364
| 28> H    -1.8434047    0.9122418    0.8704413
| 29> H    -0.0750109    2.7326647   -0.8192865
| 30> H     2.2085513    2.3344856   -0.1135251
| 31> H     4.0721419    0.7600323    0.1925749
| 32> H     3.6173233   -1.6702168    0.3124059
| 33> H     1.3180796   -2.4944070    0.0570533
| 34> C    -0.9061740   -1.0864854   -0.3485542
| 35> C    -1.4028128   -2.1830555    0.2157853
| 36> C    -2.7687825   -2.7206048   -0.0501067
| 37> H    -3.2939359   -2.1084633   -0.7793430
| 38> H    -2.7039493   -3.7413905   -0.4269695
| 39> H    -3.3493060   -2.7491545    0.8721834
| 40> H    -0.8162253   -2.7390112    0.9360844
| 41> H    -1.5221774   -0.5182687   -1.0350276
| 42> *
| 43>
| 44>                          ****END OF INPUT****
 Total Charge           Charge          ....    0
 Multiplicity           Mult            ....    1
 Number of Electrons    NEL             ....   86
Dispersion correction           -0.024918184
FINAL SINGLE POINT ENERGY      -464.770704207180
Dispersion correction             ... done (  0.1 sec)
Dispersion correction           -0.024653892
FINAL SINGLE POINT ENERGY      -464.774157215081
Dispersion correction             ... done (  0.1 sec)
Dispersion correction           -0.024657055
FINAL SINGLE POINT ENERGY      -464.774301786863
Dispersion correction             ... done (  0.1 sec)
FINAL SINGLE POINT ENERGY      -464.774380839335
FINAL SINGLE POINT ENERGY      -464.774395424666
FINAL SINGLE POINT ENERGY      -464.774397991910
Dispersion correction             ... done (  0.1 sec)
Dispersion correction           -0.024627247
FINAL SINGLE POINT ENERGY      -464.774399176694
Dispersion correction             ... done (  0.0 sec)
Dispersion correction           -0.024626426
FINAL SINGLE POINT ENERGY      -464.774400038121
Dispersion correction             ... done (  0.1 sec)
                    ***********************HURRAY********************

CARTESIAN COORDINATES (ANGSTROEM)
---------------------------------
  C      0.432953   -0.565552   -0.123826
  C      1.518150   -1.442561    0.034651
  C      2.822916   -0.981314    0.162635
  C      3.077248    0.389065    0.103954
  C      2.017984    1.272543   -0.061835
  C      0.687781    0.829201   -0.150987
  C     -0.356999    1.857513   -0.250459
  C     -1.600809    1.813707    0.254641
  C     -2.594731    2.921999    0.150116
  H     -3.515738    2.586121   -0.363081
  H     -2.906802    3.273603    1.151607
  H     -2.188331    3.783558   -0.406327
  H     -1.920036    0.921553    0.808238
  H     -0.040945    2.787947   -0.744180
  H      2.213260    2.349006   -0.103864
  H      4.100715    0.767842    0.180225
  H      3.645258   -1.693299    0.280191
  H      1.326016   -2.519113    0.018100
  C     -0.916911   -1.110389   -0.325344
  C     -1.403766   -2.228143    0.235711
  C     -2.758939   -2.794063   -0.031233
  H     -3.323669   -2.173432   -0.747464
  H     -2.690947   -3.817391   -0.447026
  H     -3.352458   -2.874338    0.899002
  H     -0.779947   -2.772485    0.958669
  H     -1.565509   -0.542119   -1.005777

 Multiplicity           Mult            ....    1
 Number of Electrons    NEL             ....   86
 Basis Dimension        Dim             ....  196

ORBITAL ENERGIES
----------------

  NO   OCC          E(Eh)            E(eV)
   0   2.0000     -10.244542      -278.7682
   1   2.0000     -10.244069      -278.7553
   2   2.0000     -10.235870      -278.5322
   3   2.0000     -10.233804      -278.4760
   4   2.0000     -10.232903      -278.4514
   5   2.0000     -10.232538      -278.4415
   6   2.0000     -10.232217      -278.4328
   7   2.0000     -10.232152      -278.4310
   8   2.0000     -10.231613      -278.4163
   9   2.0000     -10.229685      -278.3639
  10   2.0000     -10.227446      -278.3030
  11   2.0000     -10.226186      -278.2687
  12   2.0000      -0.881734       -23.9932
  13   2.0000      -0.817421       -22.2432
  14   2.0000      -0.813584       -22.1388
  15   2.0000      -0.766274       -20.8514
  16   2.0000      -0.762155       -20.7393
  17   2.0000      -0.702388       -19.1129
  18   2.0000      -0.685523       -18.6540
  19   2.0000      -0.624821       -17.0022
  20   2.0000      -0.610805       -16.6208
  21   2.0000      -0.565772       -15.3955
  22   2.0000      -0.558727       -15.2037
  23   2.0000      -0.522327       -14.2133
  24   2.0000      -0.484741       -13.1905
  25   2.0000      -0.478223       -13.0131
  26   2.0000      -0.458441       -12.4748
  27   2.0000      -0.442315       -12.0360
  28   2.0000      -0.438003       -11.9187
  29   2.0000      -0.426218       -11.5980
  30   2.0000      -0.425548       -11.5798
  31   2.0000      -0.421317       -11.4646
  32   2.0000      -0.402765       -10.9598
  33   2.0000      -0.392570       -10.6824
  34   2.0000      -0.382742       -10.4149
  35   2.0000      -0.369958       -10.0671
  36   2.0000      -0.368049       -10.0151
  37   2.0000      -0.351766        -9.5720
  38   2.0000      -0.344648        -9.3784
  39   2.0000      -0.298562        -8.1243
  40   2.0000      -0.294541        -8.0149
  41   2.0000      -0.245538        -6.6814
  42   2.0000      -0.223408        -6.0792
  43   0.0000      -0.030028        -0.8171
  44   0.0000      -0.013400        -0.3646
  45   0.0000       0.041462         1.1283
  46   0.0000       0.059797         1.6272
  47   0.0000       0.076805         2.0900

MULLIKEN ATOMIC CHARGES
-----------------------
   0 C :    0.054270
   1 C :   -0.150598
   2 C :   -0.085136
   3 C :   -0.083427
   4 C :   -0.150612
   5 C :    0.067578
   6 C :   -0.142103
   7 C :   -0.186456
   8 C :   -0.313940
   9 H :    0.137828
  10 H :    0.139361
  11 H :    0.130593
  12 H :    0.136489
  13 H :    0.095831
  14 H :    0.083679
  15 H :    0.094028
  16 H :    0.093636
  17 H :    0.087602
  18 C :   -0.153178
  19 C :   -0.174679
  20 C :   -0.315961
  21 H :    0.129874
  22 H :    0.138455
  23 H :    0.136338
  24 H :    0.110653
  25 H :    0.119875
Sum of atomic charges:   -0.0000000

LOEWDIN ATOMIC CHARGES
----------------------
   0 C :   -0.032627
   1 C :   -0.116234
   2 C :   -0.130194
   3 C :   -0.131061
   4 C :   -0.118220
   5 C :   -0.034491
   6 C :   -0.139126
   7 C :   -0.138183
   8 C :   -0.338527
   9 H :    0.131379
  10 H :    0.132272
  11 H :    0.126202
  12 H :    0.131663
  13 H :    0.125335
  14 H :    0.127182
  15 H :    0.128608
  16 H :    0.128610
  17 H :    0.128624
  18 C :   -0.137486
  19 C :   -0.146273
  20 C :   -0.339213
  21 H :    0.126253
  22 H :    0.131314
  23 H :    0.129936
  24 H :    0.123222
  25 H :    0.131037

  Mayer bond orders larger than 0.100000
B(  0-C ,  1-C ) :   1.3885 B(  0-C ,  5-C ) :   1.3562 B(  0-C , 18-C ) :   1.0697
B(  1-C ,  2-C ) :   1.3962 B(  1-C , 17-H ) :   0.9527 B(  2-C ,  3-C ) :   1.3615
B(  2-C , 16-H ) :   0.9635 B(  3-C ,  4-C ) :   1.4015 B(  3-C , 15-H ) :   0.9645
B(  4-C ,  5-C ) :   1.3564 B(  4-C , 14-H ) :   0.9616 B(  5-C ,  6-C ) :   1.0787
B(  6-C ,  7-C ) :   1.8874 B(  6-C , 13-H ) :   0.9234 B(  7-C ,  8-C ) :   1.0836
B(  7-C , 12-H ) :   0.9188 B(  8-C ,  9-H ) :   0.9377 B(  8-C , 10-H ) :   0.9371
B(  8-C , 11-H ) :   0.9523 B( 18-C , 19-C ) :   1.9007 B( 18-C , 25-H ) :   0.9101
B( 19-C , 20-C ) :   1.0849 B( 19-C , 24-H ) :   0.9264 B( 20-C , 21-H ) :   0.9535
B( 20-C , 22-H ) :   0.9380 B( 20-C , 23-H ) :   0.9388

Dispersion correction           -0.024625331
FINAL SINGLE POINT ENERGY      -464.774400228212

DIPOLE MOMENT
-------------

Method             : SCF
Type of density    : Electron Density
Multiplicity       :   1
Irrep              :   0
Energy             :  -464.7497748972814406 Eh
Relativity type    :
Basis              : AO
                                X                 Y                 Z
Electronic contribution:     10.018554435      -0.098596331      -0.343992061
Nuclear contribution   :    -10.320917319       0.104061334       0.410695045
                        -----------------------------------------
Total Dipole Moment    :     -0.302362884       0.005465003       0.066702984
                        -----------------------------------------
Magnitude (a.u.)       :      0.309681236
Magnitude (Debye)      :      0.787147147

VIBRATIONAL FREQUENCIES
-----------------------

Scaling factor for frequencies =  1.000000000  (already applied!)

     0:       0.00 cm**-1
     1:       0.00 cm**-1
     2:       0.00 cm**-1
     3:       0.00 cm**-1
     4:       0.00 cm**-1
     5:       0.00 cm**-1
     6:      70.91 cm**-1
     7:      81.13 cm**-1
     8:     112.82 cm**-1
     9:     120.24 cm**-1
    10:     148.93 cm**-1
    11:     167.36 cm**-1
    12:     204.23 cm**-1
    13:     234.72 cm**-1
    14:     267.73 cm**-1
    15:     319.14 cm**-1
    16:     331.18 cm**-1
    17:     345.42 cm**-1
    18:     405.97 cm**-1
    19:     490.37 cm**-1
    20:     495.64 cm**-1
    21:     546.32 cm**-1
    22:     620.77 cm**-1
    23:     639.55 cm**-1
    24:     754.09 cm**-1
    25:     764.64 cm**-1
    26:     818.48 cm**-1
    27:     834.57 cm**-1
    28:     840.01 cm**-1
    29:     869.50 cm**-1
    30:     910.54 cm**-1
    31:     963.28 cm**-1
    32:     965.56 cm**-1
    33:     978.38 cm**-1
    34:     997.17 cm**-1
    35:    1011.31 cm**-1
    36:    1021.50 cm**-1
    37:    1064.06 cm**-1
    38:    1066.42 cm**-1
    39:    1085.88 cm**-1
    40:    1113.01 cm**-1
    41:    1137.81 cm**-1
    42:    1151.95 cm**-1
    43:    1176.00 cm**-1
    44:    1227.81 cm**-1
    45:    1244.07 cm**-1
    46:    1301.42 cm**-1
    47:    1318.64 cm**-1
    48:    1326.82 cm**-1
    49:    1328.82 cm**-1
    50:    1345.36 cm**-1
    51:    1395.94 cm**-1
    52:    1409.82 cm**-1
    53:    1411.33 cm**-1
    54:    1460.97 cm**-1
    55:    1461.96 cm**-1
    56:    1471.80 cm**-1
    57:    1473.65 cm**-1
    58:    1495.75 cm**-1
    59:    1538.94 cm**-1
    60:    1649.10 cm**-1
    61:    1688.58 cm**-1
    62:    1754.08 cm**-1
    63:    1759.34 cm**-1
    64:    3020.11 cm**-1
    65:    3021.02 cm**-1
    66:    3091.98 cm**-1
    67:    3093.61 cm**-1
    68:    3129.22 cm**-1
    69:    3130.91 cm**-1
    70:    3137.54 cm**-1
    71:    3150.15 cm**-1
    72:    3156.83 cm**-1
    73:    3174.76 cm**-1
    74:    3187.94 cm**-1
    75:    3197.79 cm**-1
    76:    3209.33 cm**-1
    77:    3219.80 cm**-1

IR SPECTRUM
-----------

 Mode   freq       eps      Int      T**2         TX        TY        TZ
       cm**-1   L/(mol*cm) km/mol    a.u.
----------------------------------------------------------------------------
  6:     70.91   0.000021    0.11  0.000092  ( 0.005958  0.007471  0.000685)
  7:     81.13   0.000084    0.42  0.000323  ( 0.007372 -0.012707 -0.010368)
  8:    112.82   0.000392    1.98  0.001085  ( 0.003402 -0.004821 -0.032399)
  9:    120.24   0.000035    0.18  0.000091  (-0.002253  0.009295 -0.000155)
 10:    148.93   0.000093    0.47  0.000196  (-0.002372 -0.005978 -0.012427)
 11:    167.36   0.000072    0.37  0.000135  ( 0.002566  0.011298 -0.000795)
 12:    204.23   0.000056    0.28  0.000086  ( 0.009267  0.000434  0.000018)
 13:    234.72   0.000236    1.19  0.000313  (-0.007625 -0.001483  0.015907)
 14:    267.73   0.000120    0.61  0.000140  (-0.000959  0.009195  0.007396)
 15:    319.14   0.000056    0.28  0.000055  (-0.004719 -0.005607 -0.001194)
 16:    331.18   0.000252    1.27  0.000237  (-0.010918  0.010409 -0.003123)
 17:    345.42   0.000046    0.23  0.000042  (-0.006172 -0.001658 -0.001020)
 18:    405.97   0.000044    0.22  0.000034  ( 0.004255  0.003826  0.000921)
 19:    490.37   0.000153    0.77  0.000097  (-0.001944 -0.000508 -0.009660)
 20:    495.64   0.000669    3.38  0.000421  ( 0.001324 -0.008052  0.018824)
 21:    546.32   0.000025    0.12  0.000014  ( 0.003501  0.000790 -0.001066)
 22:    620.77   0.000386    1.95  0.000194  ( 0.000248  0.013517  0.003339)
 23:    639.55   0.000432    2.18  0.000211  (-0.012448  0.004134 -0.006216)
 24:    754.09   0.000177    0.89  0.000073  ( 0.003327  0.005308 -0.005818)
 25:    764.64   0.009637   48.70  0.003933  (-0.008128  0.008055  0.061662)
 26:    818.48   0.000200    1.01  0.000076  ( 0.007347  0.004732  0.000061)
 27:    834.57   0.000398    2.01  0.000149  ( 0.001185 -0.011765  0.003020)
 28:    840.01   0.000657    3.32  0.000244  (-0.011728 -0.003064  0.009866)
 29:    869.50   0.000189    0.96  0.000068  (-0.000870  0.008135  0.000959)
 30:    910.54   0.000104    0.53  0.000036  (-0.005142  0.002727  0.001360)
 31:    963.28   0.004289   21.67  0.001389  ( 0.020451  0.030225 -0.007584)
 32:    965.56   0.002739   13.84  0.000885  (-0.026836  0.011658  0.005392)
 33:    978.38   0.000099    0.50  0.000032  ( 0.001154  0.001742  0.005219)
 34:    997.17   0.011875   60.01  0.003716  ( 0.007258 -0.030962 -0.052009)
 35:   1011.31   0.000145    0.74  0.000045  ( 0.005926  0.003103  0.000388)
 36:   1021.50   0.000828    4.18  0.000253  (-0.015163 -0.002943 -0.003788)
 37:   1064.06   0.000128    0.65  0.000037  ( 0.004718  0.003859 -0.000555)
 38:   1066.42   0.000064    0.32  0.000019  ( 0.000332  0.004162 -0.001116)
 39:   1085.88   0.000474    2.40  0.000136  (-0.010459  0.003382 -0.003935)
 40:   1113.01   0.000149    0.75  0.000042  (-0.003200 -0.005441 -0.001411)
 41:   1137.81   0.000114    0.58  0.000031  ( 0.004578 -0.002513  0.002013)
 42:   1151.95   0.000246    1.24  0.000067  (-0.003021 -0.007579  0.000275)
 43:   1176.00   0.000021    0.11  0.000006  ( 0.001125  0.001715 -0.001205)
 44:   1227.81   0.000403    2.04  0.000102  ( 0.005059 -0.008608  0.001667)
 45:   1244.07   0.000520    2.63  0.000130  (-0.007466 -0.007109  0.004913)
 46:   1301.42   0.000085    0.43  0.000020  (-0.004391  0.000826  0.000573)
 47:   1318.64   0.000195    0.99  0.000046  ( 0.006437  0.001996  0.000863)
 48:   1326.82   0.000319    1.61  0.000075  (-0.005929 -0.005293  0.003459)
 49:   1328.82   0.000038    0.19  0.000009  ( 0.002594 -0.001230 -0.000858)
 50:   1345.36   0.000455    2.30  0.000106  ( 0.009225 -0.003378 -0.002999)
 51:   1395.94   0.000031    0.16  0.000007  (-0.000683  0.000016 -0.002562)
 52:   1409.82   0.000054    0.27  0.000012  (-0.000697 -0.001652  0.002940)
 53:   1411.33   0.000415    2.10  0.000092  (-0.005345  0.006986 -0.003807)
 54:   1460.97   0.001313    6.63  0.000280  ( 0.007881  0.006633  0.013203)
 55:   1461.96   0.002415   12.20  0.000516  ( 0.004615 -0.012140 -0.018624)
 56:   1471.80   0.003175   16.04  0.000673  (-0.016698 -0.014343  0.013733)
 57:   1473.65   0.002487   12.57  0.000527  (-0.006238  0.018280 -0.012396)
 58:   1495.75   0.000562    2.84  0.000117  (-0.002346  0.010351  0.002154)
 59:   1538.94   0.002553   12.90  0.000518  (-0.022488  0.003353 -0.000816)
 60:   1649.10   0.000063    0.32  0.000012  (-0.003163  0.000080  0.001366)
 61:   1688.58   0.000105    0.53  0.000019  ( 0.000592 -0.004281 -0.000832)
 62:   1754.08   0.001704    8.61  0.000303  ( 0.014885 -0.008824  0.001920)
 63:   1759.34   0.001081    5.46  0.000192  (-0.004164 -0.013123 -0.001454)
 64:   3020.11   0.006543   33.06  0.000676  ( 0.017009  0.019655  0.000637)
 65:   3021.02   0.007106   35.91  0.000734  (-0.023521  0.013431  0.000683)
 66:   3091.98   0.002123   10.73  0.000214  (-0.005970  0.007238  0.011236)
 67:   3093.61   0.001910    9.65  0.000193  (-0.004276 -0.006202 -0.011658)
 68:   3129.22   0.001197    6.05  0.000119  (-0.001594  0.007836 -0.007443)
 69:   3130.91   0.001882    9.51  0.000188  ( 0.006587  0.009470 -0.007380)
 70:   3137.54   0.003179   16.07  0.000316  (-0.002423  0.016655 -0.005743)
 71:   3150.15   0.000254    1.29  0.000025  ( 0.001094  0.004700 -0.001382)
 72:   3156.83   0.004392   22.20  0.000434  (-0.015021  0.004933 -0.013574)
 73:   3174.76   0.002251   11.38  0.000221  ( 0.001665  0.013544 -0.005919)
 74:   3187.94   0.001165    5.89  0.000114  (-0.000198  0.010614 -0.001168)
 75:   3197.79   0.000511    2.58  0.000050  (-0.003007  0.006135 -0.001773)
 76:   3209.33   0.002822   14.26  0.000274  ( 0.007524  0.014757 -0.000001)
 77:   3219.80   0.003114   15.74  0.000302  ( 0.016762 -0.004489  0.000822)

--------------------------
THERMOCHEMISTRY AT 298.15K
--------------------------

Temperature         ...   298.15 K
Pressure            ...     1.00 atm
Total Mass          ...   158.24 AMU
Quasi RRHO          ...     True
Cut-Off Frequency   ...     1.00 cm^-1

Throughout the following assumptions are being made:
  (1) The electronic state is orbitally nondegenerate
  (2) There are no thermally accessible electronically excited states
  (3) Hindered rotations indicated by low frequency modes are not
      treated as such but are treated as vibrations and this may
      cause some error
  (4) All equations used are the standard statistical mechanics
      equations for an ideal gas
  (5) All vibrations are strictly harmonic

freq.      70.91  E(vib)   ...       0.50
freq.      81.13  E(vib)   ...       0.48
freq.     112.82  E(vib)   ...       0.45
freq.     120.24  E(vib)   ...       0.44
freq.     148.93  E(vib)   ...       0.40
freq.     167.36  E(vib)   ...       0.39
freq.     204.23  E(vib)   ...       0.35
freq.     234.72  E(vib)   ...       0.32
freq.     267.73  E(vib)   ...       0.29
freq.     319.14  E(vib)   ...       0.25
freq.     331.18  E(vib)   ...       0.24
freq.     345.42  E(vib)   ...       0.23
freq.     405.97  E(vib)   ...       0.19
freq.     490.37  E(vib)   ...       0.15
freq.     495.64  E(vib)   ...       0.14
freq.     546.32  E(vib)   ...       0.12
freq.     620.77  E(vib)   ...       0.09
freq.     639.55  E(vib)   ...       0.09
freq.     754.09  E(vib)   ...       0.06
freq.     764.64  E(vib)   ...       0.06
freq.     818.48  E(vib)   ...       0.05
freq.     834.57  E(vib)   ...       0.04
freq.     840.01  E(vib)   ...       0.04
freq.     869.50  E(vib)   ...       0.04
freq.     910.54  E(vib)   ...       0.03
freq.     963.28  E(vib)   ...       0.03
freq.     965.56  E(vib)   ...       0.03
freq.     978.38  E(vib)   ...       0.03
freq.     997.17  E(vib)   ...       0.02
freq.    1011.31  E(vib)   ...       0.02
freq.    1021.50  E(vib)   ...       0.02
freq.    1064.06  E(vib)   ...       0.02
freq.    1066.42  E(vib)   ...       0.02
freq.    1085.88  E(vib)   ...       0.02
freq.    1113.01  E(vib)   ...       0.01
freq.    1137.81  E(vib)   ...       0.01
freq.    1151.95  E(vib)   ...       0.01
freq.    1176.00  E(vib)   ...       0.01
freq.    1227.81  E(vib)   ...       0.01
freq.    1244.07  E(vib)   ...       0.01
freq.    1301.42  E(vib)   ...       0.01
freq.    1318.64  E(vib)   ...       0.01
freq.    1326.82  E(vib)   ...       0.01
freq.    1328.82  E(vib)   ...       0.01
freq.    1345.36  E(vib)   ...       0.01
freq.    1395.94  E(vib)   ...       0.00
freq.    1409.82  E(vib)   ...       0.00
freq.    1411.33  E(vib)   ...       0.00
freq.    1460.97  E(vib)   ...       0.00
freq.    1461.96  E(vib)   ...       0.00
freq.    1471.80  E(vib)   ...       0.00
freq.    1473.65  E(vib)   ...       0.00
freq.    1495.75  E(vib)   ...       0.00
freq.    1538.94  E(vib)   ...       0.00
freq.    1649.10  E(vib)   ...       0.00
freq.    1688.58  E(vib)   ...       0.00
freq.    1754.08  E(vib)   ...       0.00
freq.    1759.34  E(vib)   ...       0.00
freq.    3020.11  E(vib)   ...       0.00
freq.    3021.02  E(vib)   ...       0.00
freq.    3091.98  E(vib)   ...       0.00
freq.    3093.61  E(vib)   ...       0.00
freq.    3129.22  E(vib)   ...       0.00
freq.    3130.91  E(vib)   ...       0.00
freq.    3137.54  E(vib)   ...       0.00
freq.    3150.15  E(vib)   ...       0.00
freq.    3156.83  E(vib)   ...       0.00
freq.    3174.76  E(vib)   ...       0.00
freq.    3187.94  E(vib)   ...       0.00
freq.    3197.79  E(vib)   ...       0.00
freq.    3209.33  E(vib)   ...       0.00
freq.    3219.80  E(vib)   ...       0.00

------------
INNER ENERGY
------------

The inner energy is: U= E(el) + E(ZPE) + E(vib) + E(rot) + E(trans)
    E(el)   - is the total energy from the electronic structure calculation
              = E(kin-el) + E(nuc-el) + E(el-el) + E(nuc-nuc)
    E(ZPE)  - the the zero temperature vibrational energy from the frequency calculation
    E(vib)  - the the finite temperature correction to E(ZPE) due to population
              of excited vibrational states
    E(rot)  - is the rotational thermal energy
    E(trans)- is the translational thermal energy

Summary of contributions to the inner energy U:
Electronic energy                ...   -464.77440023 Eh
Zero point energy                ...      0.22351502 Eh     140.26 kcal/mol
Thermal vibrational correction   ...      0.00918667 Eh       5.76 kcal/mol
Thermal rotational correction    ...      0.00141627 Eh       0.89 kcal/mol
Thermal translational correction ...      0.00141627 Eh       0.89 kcal/mol
-----------------------------------------------------------------------
Total thermal energy                   -464.53886599 Eh

Summary of corrections to the electronic energy:
(perhaps to be used in another calculation)
Total thermal correction                  0.01201921 Eh       7.54 kcal/mol
Non-thermal (ZPE) correction              0.22351502 Eh     140.26 kcal/mol
-----------------------------------------------------------------------
Total correction                          0.23553423 Eh     147.80 kcal/mol

--------
ENTHALPY
--------

The enthalpy is H = U + kB*T
                kB is Boltzmann's constant
Total thermal energy              ...   -464.53886599 Eh
Thermal Enthalpy correction       ...      0.00094421 Eh       0.59 kcal/mol
-----------------------------------------------------------------------
Total Enthalpy                    ...   -464.53792178 Eh

Note: Only C1 symmetry has been detected, increase convergence thresholds
      if your molecule has a higher symmetry. Symmetry factor of 1.0 is
      used for the rotational entropy correction.

Note: Rotational entropy computed according to Herzberg
Infrared and Raman Spectra, Chapter V,1, Van Nostrand Reinhold, 1945
Point Group:  C1, Symmetry Number:   1
Rotational constants in cm-1:     0.032124     0.026217     0.014718

Vibrational entropy computed according to the QRRHO of S. Grimme
Chem.Eur.J. 2012 18 9955 using a reference frequency of 100.0 cm-1

-------
ENTROPY
-------

The entropy contributions are T*S = T*(S(el)+S(vib)+S(rot)+S(trans))
     S(el)   - electronic entropy
     S(vib)  - vibrational entropy
     S(rot)  - rotational entropy
     S(trans)- translational entropy
The entropies will be listed as multiplied by the temperature to get
units of energy

                             ****ORCA TERMINATED NORMALLY****
TOTAL RUN TIME: 0 days 0 hours 13 minutes 17 seconds 848 msec
