                         Program Version 6.0.0  -   RELEASE  -
|  1> !TPSSh freq aug-cc-pVTZ d3 TightSCF SlowConv RIJCOSX defgrid2
|  2>
|  3> %pal
|  4> nprocs 12
|  5> end
|  6>
|  7> %scf
|  8> MaxIter 1500
|  9> end
| 10>
| 11> %maxcore 5000
| 12>
| 13> !CPCM
| 14> %cpcm smd true
| 15> SMDsolvent "MeCN"
| 16> surfacetype gepol_ses
| 17> rsolv 2.19
| 18> end
| 19>
| 20> * xyz 1 2
| 21> C           0.95437095764020     -1.31582472249336      0.00165412462451
| 22> C           2.30010969122736     -1.05177268913811     -0.00193726067692
| 23> C           2.74571914237987      0.28356917227366     -0.00234586979293
| 24> C           1.83960134946847      1.35958580434250      0.00078656664261
| 25> C           0.49184662959872      1.11372503596553      0.00347670715206
| 26> C           0.02460823041418     -0.23765714865699      0.00365448902891
| 27> C          -1.35128891704358     -0.54873882398539      0.00341420238094
| 28> N          -2.23028437244169      0.43782500092567     -0.00051117768247
| 29> O          -3.47901195969589     -0.05165624451676     -0.00589381988280
| 30> H          -4.06004524686668      0.73766205379140     -0.00669625617877
| 31> H          -1.68666917872831     -1.58221252263913      0.00458940201620
| 32> H          -0.22525214345844      1.92228848446653      0.00593742078958
| 33> H           2.21248204087021      2.37451322817859      0.00050650564766
| 34> H           3.80922813947845      0.48578341401483     -0.00508888428615
| 35> H           3.02045310929946     -1.85804066880039     -0.00427636329760
| 36> H           0.58182542785765     -2.33167337372859      0.00292081351516
| 37> *
| 38>
| 39>                          ****END OF INPUT****

CARTESIAN COORDINATES (ANGSTROEM)
---------------------------------
  C      0.954371   -1.315825    0.001654
  C      2.300110   -1.051773   -0.001937
  C      2.745719    0.283569   -0.002346
  C      1.839601    1.359586    0.000787
  C      0.491847    1.113725    0.003477
  C      0.024608   -0.237657    0.003654
  C     -1.351289   -0.548739    0.003414
  N     -2.230284    0.437825   -0.000511
  O     -3.479012   -0.051656   -0.005894
  H     -4.060045    0.737662   -0.006696
  H     -1.686669   -1.582213    0.004589
  H     -0.225252    1.922288    0.005937
  H      2.212482    2.374513    0.000507
  H      3.809228    0.485783   -0.005089
  H      3.020453   -1.858041   -0.004276
  H      0.581825   -2.331673    0.002921

 Total Charge           Charge          ....    1
 Multiplicity           Mult            ....    2
 Number of Electrons    NEL             ....   63
 Basis Dimension        Dim             ....  575

ORBITAL ENERGIES
----------------
                 SPIN UP ORBITALS
  NO   OCC          E(Eh)            E(eV)
   0   1.0000     -19.181707      -521.9608
   1   1.0000     -14.379515      -391.2865
   2   1.0000     -10.209392      -277.8117
   3   1.0000     -10.191140      -277.3150
   4   1.0000     -10.176759      -276.9237
   5   1.0000     -10.166986      -276.6577
   6   1.0000     -10.165614      -276.6204
   7   1.0000     -10.153937      -276.3027
   8   1.0000     -10.151660      -276.2407
   9   1.0000      -1.156260       -31.4634
  10   1.0000      -0.915509       -24.9123
  11   1.0000      -0.872980       -23.7550
  12   1.0000      -0.783640       -21.3239
  13   1.0000      -0.772450       -21.0194
  14   1.0000      -0.675413       -18.3789
  15   1.0000      -0.632084       -17.1999
  16   1.0000      -0.597241       -16.2518
  17   1.0000      -0.567236       -15.4353
  18   1.0000      -0.538321       -14.6485
  19   1.0000      -0.505096       -13.7444
  20   1.0000      -0.486771       -13.2457
  21   1.0000      -0.480073       -13.0634
  22   1.0000      -0.457808       -12.4576
  23   1.0000      -0.442664       -12.0455
  24   1.0000      -0.436047       -11.8654
  25   1.0000      -0.411005       -11.1840
  26   1.0000      -0.373929       -10.1751
  27   1.0000      -0.362973        -9.8770
  28   1.0000      -0.341428        -9.2907
  29   1.0000      -0.325066        -8.8455
  30   1.0000      -0.289479        -7.8771
  31   1.0000      -0.275155        -7.4873
  32   0.0000      -0.125919        -3.4264
  33   0.0000      -0.057181        -1.5560
  34   0.0000      -0.024918        -0.6781
  35   0.0000      -0.009627        -0.2620
  36   0.0000      -0.002024        -0.0551

                 SPIN DOWN ORBITALS
  NO   OCC          E(Eh)            E(eV)
   0   1.0000     -19.175255      -521.7852
   1   1.0000     -14.372258      -391.0890
   2   1.0000     -10.209792      -277.8226
   3   1.0000     -10.188338      -277.2388
   4   1.0000     -10.172607      -276.8107
   5   1.0000     -10.165322      -276.6125
   6   1.0000     -10.164636      -276.5938
   7   1.0000     -10.154281      -276.3120
   8   1.0000     -10.152480      -276.2630
   9   1.0000      -1.144055       -31.1313
  10   1.0000      -0.906222       -24.6596
  11   1.0000      -0.865093       -23.5404
  12   1.0000      -0.775971       -21.1152
  13   1.0000      -0.769423       -20.9371
  14   1.0000      -0.670821       -18.2540
  15   1.0000      -0.629520       -17.1301
  16   1.0000      -0.593443       -16.1484
  17   1.0000      -0.562649       -15.3105
  18   1.0000      -0.535986       -14.5849
  19   1.0000      -0.501796       -13.6546
  20   1.0000      -0.477999       -13.0070
  21   1.0000      -0.455411       -12.3924
  22   1.0000      -0.451841       -12.2952
  23   1.0000      -0.442228       -12.0336
  24   1.0000      -0.433901       -11.8071
  25   1.0000      -0.393034       -10.6950
  26   1.0000      -0.373195       -10.1552
  27   1.0000      -0.361226        -9.8295
  28   1.0000      -0.319092        -8.6829
  29   1.0000      -0.316942        -8.6244
  30   1.0000      -0.285213        -7.7610
  31   0.0000      -0.218312        -5.9406
  32   0.0000      -0.099621        -2.7108
  33   0.0000      -0.049230        -1.3396
  34   0.0000      -0.008636        -0.2350
  35   0.0000      -0.007738        -0.2105

MULLIKEN ATOMIC CHARGES AND SPIN POPULATIONS
--------------------------------------------
   0 C :   -0.567397    0.040704
   1 C :   -0.386899   -0.021443
   2 C :   -0.055079    0.262141
   3 C :   -0.562137   -0.065295
   4 C :   -0.499875    0.091357
   5 C :    1.260477    0.209645
   6 C :    0.516529   -0.016997
   7 N :   -0.466675    0.300083
   8 O :   -0.196596    0.200827
   9 H :    0.217423   -0.003221
  10 H :    0.329485    0.000382
  11 H :    0.079012    0.000916
  12 H :    0.468323   -0.002177
  13 H :    0.422420    0.005657
  14 H :    0.488622   -0.000472
  15 H :   -0.047633   -0.002106
Sum of atomic charges         :    1.0000000

LOEWDIN ATOMIC CHARGES AND SPIN POPULATIONS
-------------------------------------------
   0 C :    0.273568    0.055698
   1 C :    0.275919    0.042230
   2 C :    0.291243    0.133631
   3 C :    0.271652    0.032861
   4 C :    0.266068    0.070221
   5 C :   -0.101733    0.113466
   6 C :    0.088742    0.060567
   7 N :    0.221618    0.238522
   8 O :    0.750828    0.199708
   9 H :   -0.419130    0.014710
  10 H :   -0.149885   -0.003971
  11 H :   -0.171575    0.009037
  12 H :   -0.155293   -0.003271
  13 H :   -0.141721    0.029787
  14 H :   -0.153728    0.000006
  15 H :   -0.146573    0.006798

  Mayer bond orders larger than 0.100000
B(  0-C ,  1-C ) :   1.5182 B(  0-C ,  4-C ) :  -0.2277 B(  0-C ,  5-C ) :   0.4572
B(  0-C , 14-H ) :  -0.1177 B(  0-C , 15-H ) :   1.4297 B(  1-C ,  2-C ) :   1.3244
B(  1-C , 14-H ) :   0.5179 B(  2-C ,  3-C ) :   1.2491 B(  2-C ,  5-C ) :  -0.1583
B(  2-C ,  6-C ) :   0.1402 B(  2-C , 12-H ) :   0.1114 B(  2-C , 13-H ) :   0.5892
B(  3-C ,  4-C ) :   1.5476 B(  3-C , 12-H ) :   0.5384 B(  4-C ,  5-C ) :   0.6084
B(  4-C ,  6-C ) :   0.1400 B(  4-C , 11-H ) :   1.0768 B(  5-C ,  6-C ) :   0.5715
B(  5-C , 12-H ) :   0.1118 B(  5-C , 14-H ) :   0.1146 B(  6-C ,  7-N ) :   0.5082
B(  6-C , 10-H ) :   0.6760 B(  6-C , 15-H ) :  -0.1385 B(  7-N ,  8-O ) :   0.7592
B(  8-O ,  9-H ) :   0.9609 B( 11-H , 15-H ) :   0.1003

Dispersion correction           -0.018577838
FINAL SINGLE POINT ENERGY      -400.853642600154

DIPOLE MOMENT
-------------

Method             : SCF
Type of density    : Electron Density
Multiplicity       :   2
Irrep              :   0
Energy             :  -400.8350647619643041 Eh
Relativity type    :
Basis              : AO
                                X                 Y                 Z
Electronic contribution:     -3.290444581       0.143546998       0.002463010
Nuclear contribution   :      3.312608889      -0.249848327      -0.002118813
                        -----------------------------------------
Total Dipole Moment    :      0.022164307      -0.106301329       0.000344197
                        -----------------------------------------
Magnitude (a.u.)       :      0.108587972
Magnitude (Debye)      :      0.276008689

VIBRATIONAL FREQUENCIES
-----------------------

Scaling factor for frequencies =  1.000000000  (already applied!)

     0:       0.00 cm**-1
     1:       0.00 cm**-1
     2:       0.00 cm**-1
     3:       0.00 cm**-1
     4:       0.00 cm**-1
     5:       0.00 cm**-1
     6:      73.71 cm**-1
     7:     145.42 cm**-1
     8:     163.87 cm**-1
     9:     240.37 cm**-1
    10:     368.11 cm**-1
    11:     380.08 cm**-1
    12:     425.49 cm**-1
    13:     433.36 cm**-1
    14:     546.42 cm**-1
    15:     577.38 cm**-1
    16:     618.74 cm**-1
    17:     636.69 cm**-1
    18:     786.58 cm**-1
    19:     815.42 cm**-1
    20:     868.50 cm**-1
    21:     953.79 cm**-1
    22:     982.09 cm**-1
    23:    1000.05 cm**-1
    24:    1008.95 cm**-1
    25:    1009.77 cm**-1
    26:    1023.03 cm**-1
    27:    1088.55 cm**-1
    28:    1111.53 cm**-1
    29:    1157.47 cm**-1
    30:    1185.31 cm**-1
    31:    1239.57 cm**-1
    32:    1268.18 cm**-1
    33:    1340.33 cm**-1
    34:    1395.93 cm**-1
    35:    1439.43 cm**-1
    36:    1457.79 cm**-1
    37:    1497.46 cm**-1
    38:    1512.51 cm**-1
    39:    1536.50 cm**-1
    40:    1644.68 cm**-1
    41:    3151.85 cm**-1
    42:    3192.23 cm**-1
    43:    3197.14 cm**-1
    44:    3205.79 cm**-1
    45:    3213.96 cm**-1
    46:    3219.27 cm**-1
    47:    3535.58 cm**-1

IR SPECTRUM
-----------

 Mode   freq       eps      Int      T**2         TX        TY        TZ
       cm**-1   L/(mol*cm) km/mol    a.u.
----------------------------------------------------------------------------
  6:     73.71   0.000156    0.79  0.000659  (-0.001402 -0.000199 -0.025632)
  7:    145.42   0.000168    0.85  0.000361  (-0.008018  0.017233  0.000398)
  8:    163.87   0.000042    0.21  0.000079  (-0.001772  0.001062 -0.008666)
  9:    240.37   0.000105    0.53  0.000136  (-0.002358 -0.000276  0.011407)
 10:    368.11   0.000078    0.40  0.000066  (-0.001175 -0.000738  0.008031)
 11:    380.08   0.001316    6.65  0.001080  ( 0.031358  0.009828 -0.000712)
 12:    425.49   0.000320    1.62  0.000235  ( 0.001108  0.000315 -0.015274)
 13:    433.36   0.000937    4.74  0.000675  (-0.024121 -0.009220  0.002855)
 14:    546.42   0.044775  226.27  0.025571  (-0.003803 -0.000914  0.159862)
 15:    577.38   0.000824    4.17  0.000446  ( 0.011275  0.017842  0.000388)
 16:    618.74   0.004551   23.00  0.002295  (-0.002121  0.000304 -0.047861)
 17:    636.69   0.020469  103.44  0.010032  ( 0.099429  0.012062  0.000816)
 18:    786.58   0.011357   57.39  0.004506  ( 0.000363 -0.000336  0.067122)
 19:    815.42   0.000004    0.02  0.000001  ( 0.000028  0.000283  0.001152)
 20:    868.50   0.000365    1.84  0.000131  (-0.000339  0.011438  0.000315)
 21:    953.79   0.000371    1.88  0.000121  (-0.001351  0.000122  0.010935)
 22:    982.09   0.002045   10.33  0.000650  (-0.000575 -0.000520  0.025479)
 23:   1000.05   0.008623   43.58  0.002691  ( 0.051697  0.004262  0.000180)
 24:   1008.95   0.000071    0.36  0.000022  (-0.002752 -0.000708  0.003708)
 25:   1009.77   0.003530   17.84  0.001091  ( 0.032993  0.001563  0.000299)
 26:   1023.03   0.000274    1.38  0.000083  ( 0.000522 -0.000096  0.009122)
 27:   1088.55   0.095401  482.12  0.027349  ( 0.162509 -0.030662  0.000423)
 28:   1111.53   0.051250  259.00  0.014389  (-0.117631 -0.023479 -0.000395)
 29:   1157.47   0.004326   21.86  0.001166  (-0.026039  0.022100 -0.000020)
 30:   1185.31   0.010875   54.96  0.002863  ( 0.053183  0.005897  0.000089)
 31:   1239.57   0.071669  362.19  0.018043  (-0.128654 -0.038609 -0.000511)
 32:   1268.18   0.044604  225.41  0.010976  ( 0.104765  0.000416  0.000342)
 33:   1340.33   0.003886   19.64  0.000905  ( 0.024315  0.017708  0.000174)
 34:   1395.93   0.005843   29.53  0.001306  (-0.001959  0.036087  0.000002)
 35:   1439.43   0.015125   76.44  0.003279  ( 0.017765 -0.054438  0.000038)
 36:   1457.79   0.001413    7.14  0.000302  ( 0.014675 -0.009318 -0.000546)
 37:   1497.46   0.029015  146.63  0.006046  ( 0.077666 -0.003789 -0.000313)
 38:   1512.51   0.045935  232.14  0.009477  ( 0.097128  0.006592  0.000073)
 39:   1536.50   0.002729   13.79  0.000554  (-0.001123 -0.023517  0.000008)
 40:   1644.68   0.058088  293.56  0.011022  ( 0.104220  0.012648 -0.000044)
 41:   3151.85   0.000491    2.48  0.000049  ( 0.006972 -0.000183  0.000070)
 42:   3192.23   0.000172    0.87  0.000017  ( 0.004069 -0.000480 -0.000084)
 43:   3197.14   0.000299    1.51  0.000029  ( 0.005399 -0.000148  0.000092)
 44:   3205.79   0.000736    3.72  0.000072  ( 0.004913  0.006894  0.000105)
 45:   3213.96   0.001122    5.67  0.000109  ( 0.010099 -0.002645 -0.000059)
 46:   3219.27   0.001692    8.55  0.000164  (-0.012808  0.000024 -0.000057)
 47:   3535.58   0.259876  1313.31  0.022938  ( 0.144513 -0.045317  0.000229)

--------------------------
THERMOCHEMISTRY AT 298.15K
--------------------------

Temperature         ...   298.15 K
Pressure            ...     1.00 atm
Total Mass          ...   121.14 AMU
Quasi RRHO          ...     True
Cut-Off Frequency   ...     1.00 cm^-1

Throughout the following assumptions are being made:
  (1) The electronic state is orbitally nondegenerate
      but the spin degeneracy is treated
  (2) There are no thermally accessible electronically excited states
  (3) Hindered rotations indicated by low frequency modes are not
      treated as such but are treated as vibrations and this may
      cause some error
  (4) All equations used are the standard statistical mechanics
      equations for an ideal gas
  (5) All vibrations are strictly harmonic

freq.      73.71  E(vib)   ...       0.49
freq.     145.42  E(vib)   ...       0.41
freq.     163.87  E(vib)   ...       0.39
freq.     240.37  E(vib)   ...       0.31
freq.     368.11  E(vib)   ...       0.21
freq.     380.08  E(vib)   ...       0.21
freq.     425.49  E(vib)   ...       0.18
freq.     433.36  E(vib)   ...       0.17
freq.     546.42  E(vib)   ...       0.12
freq.     577.38  E(vib)   ...       0.11
freq.     618.74  E(vib)   ...       0.09
freq.     636.69  E(vib)   ...       0.09
freq.     786.58  E(vib)   ...       0.05
freq.     815.42  E(vib)   ...       0.05
freq.     868.50  E(vib)   ...       0.04
freq.     953.79  E(vib)   ...       0.03
freq.     982.09  E(vib)   ...       0.02
freq.    1000.05  E(vib)   ...       0.02
freq.    1008.95  E(vib)   ...       0.02
freq.    1009.77  E(vib)   ...       0.02
freq.    1023.03  E(vib)   ...       0.02
freq.    1088.55  E(vib)   ...       0.02
freq.    1111.53  E(vib)   ...       0.01
freq.    1157.47  E(vib)   ...       0.01
freq.    1185.31  E(vib)   ...       0.01
freq.    1239.57  E(vib)   ...       0.01
freq.    1268.18  E(vib)   ...       0.01
freq.    1340.33  E(vib)   ...       0.01
freq.    1395.93  E(vib)   ...       0.00
freq.    1439.43  E(vib)   ...       0.00
freq.    1457.79  E(vib)   ...       0.00
freq.    1497.46  E(vib)   ...       0.00
freq.    1512.51  E(vib)   ...       0.00
freq.    1536.50  E(vib)   ...       0.00
freq.    1644.68  E(vib)   ...       0.00
freq.    3151.85  E(vib)   ...       0.00
freq.    3192.23  E(vib)   ...       0.00
freq.    3197.14  E(vib)   ...       0.00
freq.    3205.79  E(vib)   ...       0.00
freq.    3213.96  E(vib)   ...       0.00
freq.    3219.27  E(vib)   ...       0.00
freq.    3535.58  E(vib)   ...       0.00

------------
INNER ENERGY
------------

The inner energy is: U= E(el) + E(ZPE) + E(vib) + E(rot) + E(trans)
    E(el)   - is the total energy from the electronic structure calculation
              = E(kin-el) + E(nuc-el) + E(el-el) + E(nuc-nuc)
    E(ZPE)  - the the zero temperature vibrational energy from the frequency calculation
    E(vib)  - the the finite temperature correction to E(ZPE) due to population
              of excited vibrational states
    E(rot)  - is the rotational thermal energy
    E(trans)- is the translational thermal energy

Summary of contributions to the inner energy U:
Electronic energy                ...   -400.85364260 Eh
Zero point energy                ...      0.12449933 Eh      78.12 kcal/mol
Thermal vibrational correction   ...      0.00505039 Eh       3.17 kcal/mol
Thermal rotational correction    ...      0.00141627 Eh       0.89 kcal/mol
Thermal translational correction ...      0.00141627 Eh       0.89 kcal/mol
-----------------------------------------------------------------------
Total thermal energy                   -400.72126034 Eh

Summary of corrections to the electronic energy:
(perhaps to be used in another calculation)
Total thermal correction                  0.00788293 Eh       4.95 kcal/mol
Non-thermal (ZPE) correction              0.12449933 Eh      78.12 kcal/mol
-----------------------------------------------------------------------
Total correction                          0.13238226 Eh      83.07 kcal/mol

--------
ENTHALPY
--------

The enthalpy is H = U + kB*T
                kB is Boltzmann's constant
Total thermal energy              ...   -400.72126034 Eh
Thermal Enthalpy correction       ...      0.00094421 Eh       0.59 kcal/mol
-----------------------------------------------------------------------
Total Enthalpy                    ...   -400.72031613 Eh

Note: Only C1 symmetry has been detected, increase convergence thresholds
      if your molecule has a higher symmetry. Symmetry factor of 1.0 is
      used for the rotational entropy correction.

Note: Rotational entropy computed according to Herzberg
Infrared and Raman Spectra, Chapter V,1, Van Nostrand Reinhold, 1945
Point Group:  C1, Symmetry Number:   1
Rotational constants in cm-1:     0.167158     0.031076     0.026204

Vibrational entropy computed according to the QRRHO of S. Grimme
Chem.Eur.J. 2012 18 9955 using a reference frequency of 100.0 cm-1

-------
ENTROPY
-------

The entropy contributions are T*S = T*(S(el)+S(vib)+S(rot)+S(trans))
     S(el)   - electronic entropy
     S(vib)  - vibrational entropy
     S(rot)  - rotational entropy
     S(trans)- translational entropy
The entropies will be listed as multiplied by the temperature to get
units of energy

Electronic entropy                ...      0.00065446 Eh      0.41 kcal/mol
Vibrational entropy               ...      0.00835714 Eh      5.24 kcal/mol
Rotational entropy                ...      0.01371335 Eh      8.61 kcal/mol
Translational entropy             ...      0.01914284 Eh     12.01 kcal/mol
-----------------------------------------------------------------------
Final entropy term                ...      0.04186779 Eh     26.27 kcal/mol

In case the symmetry of your molecule has not been determined correctly
or in case you have a reason to use a different symmetry number we print
out the resulting rotational entropy values for sn=1,12:

 non-linear molecules -----------------------------------
|  sn= 1 | S(rot)=       0.01371335 Eh      8.61 kcal/mol|
|  sn= 2 | S(rot)=       0.01305890 Eh      8.19 kcal/mol|
|  sn= 3 | S(rot)=       0.01267606 Eh      7.95 kcal/mol|
|  sn= 4 | S(rot)=       0.01240444 Eh      7.78 kcal/mol|
|  sn= 5 | S(rot)=       0.01219375 Eh      7.65 kcal/mol|
|  sn= 6 | S(rot)=       0.01202161 Eh      7.54 kcal/mol|
|  sn= 7 | S(rot)=       0.01187606 Eh      7.45 kcal/mol|
|  sn= 8 | S(rot)=       0.01174998 Eh      7.37 kcal/mol|
|  sn= 9 | S(rot)=       0.01163878 Eh      7.30 kcal/mol|
|  sn=10 | S(rot)=       0.01153930 Eh      7.24 kcal/mol|
|  sn=11 | S(rot)=       0.01144931 Eh      7.18 kcal/mol|
|  sn=12 | S(rot)=       0.01136715 Eh      7.13 kcal/mol|
 linear molecules ---------------------------------------
|  Dinfh | S(rot)=       0.00876436 Eh      5.50 kcal/mol|
|  Cinfv | S(rot)=       0.00941881 Eh      5.91 kcal/mol|
 --------------------------------------------------------

                             ****ORCA TERMINATED NORMALLY****
TOTAL RUN TIME: 0 days 0 hours 48 minutes 24 seconds 646 msec
