                         Program Version 6.0.0  -   RELEASE  -
|  1> !B3LYP aug-cc-pVTZ d3 TightSCF SlowConv RIJCOSX defgrid2
|  2>
|  3> %pal
|  4> nprocs 4
|  5> end
|  6>
|  7> %scf
|  8> MaxIter 1500
|  9> end
| 10>
| 11> %maxcore 3000
| 12>
| 13> !CPCM
| 14> %cpcm smd true
| 15> SMDsolvent "MeCN"
| 16> surfacetype gepol_ses
| 17> rsolv 2.19
| 18> end
| 19>
| 20> * xyz 0 1
| 21> C           1.12535933003909      1.22184876665946      0.00445520319991
| 22> C          -0.26421837966179      1.23081993194340      0.01317294666685
| 23> C          -0.96286430889490      0.02291905897302      0.02071941900053
| 24> C          -0.27116790812085     -1.18968803907145      0.02233603706903
| 25> C           1.11927983593575     -1.19274556967928      0.01192236383456
| 26> C           1.83042608643697      0.01361001085842      0.00235629509897
| 27> C           3.33037499820744      0.07812373067826     -0.00830505647652
| 28> O           3.89335056176083      1.14924412695364     -0.01221784590005
| 29> C           4.10529699500755     -1.21691160959464     -0.01456211029497
| 30> H           3.87147665667906     -1.82176550317243      0.87909273734606
| 31> H           3.85275608025563     -1.82519649459447     -0.90071459246678
| 32> H           5.18018449663339     -0.98545182796753     -0.02600819379244
| 33> H           1.64770213714144     -2.14919199620359      0.01366659940447
| 34> H          -0.82322456445574     -2.13316803225065      0.03516466443551
| 35> C          -2.46760978555516      0.00136363107126     -0.00390087802805
| 36> F          -2.92475509769190     -0.39380754718327     -1.19713617306479
| 37> F          -2.95620262622450     -0.85163753941636      0.90171536543609
| 38> F          -2.99122934584873      1.20180958170133      0.24662255340156
| 39> H          -0.81146024395866      2.17606304264227      0.01753239307008
| 40> H           1.69903008231505      2.15205687765261      0.00003667206000
| 41> *
| 42>
| 43>                          ****END OF INPUT****

CARTESIAN COORDINATES (ANGSTROEM)
---------------------------------
  C      1.125359    1.221849    0.004455
  C     -0.264218    1.230820    0.013173
  C     -0.962864    0.022919    0.020719
  C     -0.271168   -1.189688    0.022336
  C      1.119280   -1.192746    0.011922
  C      1.830426    0.013610    0.002356
  C      3.330375    0.078124   -0.008305
  O      3.893351    1.149244   -0.012218
  C      4.105297   -1.216912   -0.014562
  H      3.871477   -1.821766    0.879093
  H      3.852756   -1.825196   -0.900715
  H      5.180184   -0.985452   -0.026008
  H      1.647702   -2.149192    0.013667
  H     -0.823225   -2.133168    0.035165
  C     -2.467610    0.001364   -0.003901
  F     -2.924755   -0.393808   -1.197136
  F     -2.956203   -0.851638    0.901715
  F     -2.991229    1.201810    0.246623
  H     -0.811460    2.176063    0.017532
  H      1.699030    2.152057    0.000037

 Total Charge           Charge          ....    0
 Multiplicity           Mult            ....    1
 Number of Electrons    NEL             ....   96
 Basis Dimension        Dim             ....  759

ORBITAL ENERGIES
----------------

  NO   OCC          E(Eh)            E(eV)
   0   2.0000     -24.726348      -672.8381
   1   2.0000     -24.724491      -672.7876
   2   2.0000     -24.723763      -672.7678
   3   2.0000     -19.122408      -520.3472
   4   2.0000     -10.431896      -283.8663
   5   2.0000     -10.268515      -279.4205
   6   2.0000     -10.211210      -277.8611
   7   2.0000     -10.197025      -277.4752
   8   2.0000     -10.196194      -277.4525
   9   2.0000     -10.195541      -277.4348
  10   2.0000     -10.194733      -277.4128
  11   2.0000     -10.190899      -277.3085
  12   2.0000     -10.168768      -276.7062
  13   2.0000      -1.331386       -36.2289
  14   2.0000      -1.242012       -33.7969
  15   2.0000      -1.239019       -33.7154
  16   2.0000      -1.053357       -28.6633
  17   2.0000      -0.881346       -23.9826
  18   2.0000      -0.802531       -21.8380
  19   2.0000      -0.764738       -20.8096
  20   2.0000      -0.742057       -20.1924
  21   2.0000      -0.710853       -19.3433
  22   2.0000      -0.649299       -17.6683
  23   2.0000      -0.630790       -17.1647
  24   2.0000      -0.607465       -16.5300
  25   2.0000      -0.598789       -16.2939
  26   2.0000      -0.577583       -15.7168
  27   2.0000      -0.558553       -15.1990
  28   2.0000      -0.494736       -13.4624
  29   2.0000      -0.487267       -13.2592
  30   2.0000      -0.485201       -13.2030
  31   2.0000      -0.476558       -12.9678
  32   2.0000      -0.456465       -12.4210
  33   2.0000      -0.448339       -12.1999
  34   2.0000      -0.445223       -12.1151
  35   2.0000      -0.443420       -12.0661
  36   2.0000      -0.434666       -11.8279
  37   2.0000      -0.430579       -11.7167
  38   2.0000      -0.425010       -11.5651
  39   2.0000      -0.423632       -11.5276
  40   2.0000      -0.386501       -10.5172
  41   2.0000      -0.385188       -10.4815
  42   2.0000      -0.369195       -10.0463
  43   2.0000      -0.362950        -9.8764
  44   2.0000      -0.355326        -9.6689
  45   2.0000      -0.276974        -7.5369
  46   2.0000      -0.271926        -7.3995
  47   2.0000      -0.262686        -7.1480
  48   0.0000      -0.073786        -2.0078
  49   0.0000      -0.027409        -0.7458
  50   0.0000      -0.004159        -0.1132
  51   0.0000       0.008998         0.2448
  52   0.0000       0.014110         0.3840

MULLIKEN ATOMIC CHARGES
-----------------------
   0 C :   -1.066845
   1 C :   -0.615939
   2 C :    0.857022
   3 C :   -0.950678
   4 C :   -0.548492
   5 C :    1.577280
   6 C :    0.730859
   7 O :   -0.924795
   8 C :   -0.592961
   9 H :    0.258406
  10 H :    0.255232
  11 H :    0.171571
  12 H :    0.035897
  13 H :    0.393813
  14 C :    1.127931
  15 F :   -0.409728
  16 F :   -0.421482
  17 F :   -0.396400
  18 H :    0.325574
  19 H :    0.193733
Sum of atomic charges:   -0.0000000

LOEWDIN ATOMIC CHARGES
----------------------
   0 C :    0.210538
   1 C :    0.216493
   2 C :   -0.172959
   3 C :    0.217521
   4 C :    0.225886
   5 C :   -0.118148
   6 C :   -0.539930
   7 O :    0.493635
   8 C :    0.565197
   9 H :   -0.153455
  10 H :   -0.153533
  11 H :   -0.173594
  12 H :   -0.166076
  13 H :   -0.156082
  14 C :   -1.594253
  15 F :    0.542561
  16 F :    0.548234
  17 F :    0.560512
  18 H :   -0.172916
  19 H :   -0.179632

  Mayer bond orders larger than 0.100000
B(  0-C ,  1-C ) :   1.2633 B(  0-C ,  4-C ) :  -0.4065 B(  0-C ,  5-C ) :   0.2655
B(  0-C ,  6-C ) :   0.2353 B(  0-C , 19-H ) :   1.0413 B(  1-C ,  2-C ) :   0.7082
B(  1-C , 18-H ) :   0.8197 B(  2-C ,  3-C ) :   0.6968 B(  2-C , 14-C ) :   0.9849
B(  2-C , 15-F ) :   0.1130 B(  2-C , 16-F ) :   0.1020 B(  2-C , 17-F ) :   0.1200
B(  3-C ,  4-C ) :   0.9805 B(  3-C , 13-H ) :   0.7095 B(  4-C ,  5-C ) :   0.4254
B(  4-C ,  6-C ) :   0.1284 B(  4-C , 12-H ) :   1.4490 B(  5-C ,  6-C ) :   0.2753
B(  5-C ,  7-O ) :   0.2534 B(  5-C , 12-H ) :  -0.1840 B(  6-C ,  7-O ) :   0.8000
B(  6-C ,  8-C ) :   0.9415 B(  7-O , 19-H ) :   0.1398 B(  8-C ,  9-H ) :   0.9559
B(  8-C , 10-H ) :   0.9581 B(  8-C , 11-H ) :   0.9665 B( 14-C , 15-F ) :   0.7424
B( 14-C , 16-F ) :   0.7285 B( 14-C , 17-F ) :   0.6601

Dispersion correction           -0.036566550
FINAL SINGLE POINT ENERGY      -721.908722367760

DIPOLE MOMENT
-------------

Method             : SCF
Type of density    : Electron Density
Multiplicity       :   1
Irrep              :   0
Energy             :  -721.8721558177948054 Eh
Relativity type    :
Basis              : AO
                                X                 Y                 Z
Electronic contribution:    -21.622084593       2.954128050      -0.047440059
Nuclear contribution   :     22.009157676      -4.256883990       0.073247664
                        -----------------------------------------
Total Dipole Moment    :      0.387073083      -1.302755940       0.025807604
                        -----------------------------------------
Magnitude (a.u.)       :      1.359288285
Magnitude (Debye)      :      3.455036245

Rotational constants in cm-1:             0.074861             0.012555             0.011413
Rotational constants in MHz :          2244.280303           376.379088           342.159113

                             ****ORCA TERMINATED NORMALLY****
TOTAL RUN TIME: 0 days 0 hours 6 minutes 33 seconds 550 msec
