                         Program Version 6.0.0  -   RELEASE  -
|  1> !B3LYP aug-cc-pVTZ d3 TightSCF SlowConv RIJCOSX defgrid2
|  2>
|  3> %pal
|  4> nprocs 4
|  5> end
|  6>
|  7> %scf
|  8> MaxIter 1500
|  9> end
| 10>
| 11> %maxcore 3000
| 12>
| 13> !CPCM
| 14> %cpcm smd true
| 15> SMDsolvent "MeCN"
| 16> surfacetype gepol_ses
| 17> rsolv 2.19
| 18> end
| 19>
| 20> * xyz 1 2
| 21> C           1.56411298308256     -1.23948514477004     -0.10418100456342
| 22> C           2.94368174819201     -1.22399346873146     -0.08222881875616
| 23> C           3.62829509556698     -0.00527124649099      0.03533216996641
| 24> C           2.91690679987594      1.20436209520410      0.12189533623917
| 25> C           1.53837367111152      1.19695452226545      0.08354541546876
| 26> C           0.81270320076294     -0.02581622100353     -0.02471147709908
| 27> C          -0.62456099600129     -0.00774337256640     -0.04364594026659
| 28> C          -1.35469923195748     -1.19559169113903      0.09103295930174
| 29> C          -2.82277389645953     -1.26777692582385      0.16984319084975
| 30> C          -3.52145036714036      0.07542391320474      0.33030984445232
| 31> C          -2.84421744986526      1.11928751618814     -0.54346013749953
| 32> C          -1.37724631745571      1.28864519852577     -0.15684571320763
| 33> H          -0.86941817273049      1.94978262536238     -0.87811192857259
| 34> H          -1.30963007910482      1.80378079157142      0.82358949269975
| 35> H          -3.35155550657584      2.09318614428475     -0.45769951109418
| 36> H          -2.91426747189626      0.82232909406415     -1.60637738831724
| 37> H          -4.58799893909126     -0.02529210685066      0.07520987112053
| 38> H          -3.47978220021016      0.38792054597581      1.38967757724746
| 39> H          -3.14919539400669     -1.77633387981961     -0.76848551187315
| 40> H          -3.10223657823725     -1.99716471247534      0.95556557069623
| 41> H          -0.82292218871793     -2.14995476101911      0.14728310793351
| 42> H           1.00142564161039      2.14381086727947      0.15925446288599
| 43> H           3.45702786598241      2.14958081367639      0.21918826417843
| 44> H           4.72206867248084      0.00454899918573      0.05884230889501
| 45> H           3.50197914639113     -2.16035785555081     -0.15869714710684
| 46> H           1.05904956439360     -2.20048274054750     -0.21144959357865
| 47> *
| 48>
| 49>                          ****END OF INPUT****

CARTESIAN COORDINATES (ANGSTROEM)
---------------------------------
  C      1.564113   -1.239485   -0.104181
  C      2.943682   -1.223993   -0.082229
  C      3.628295   -0.005271    0.035332
  C      2.916907    1.204362    0.121895
  C      1.538374    1.196955    0.083545
  C      0.812703   -0.025816   -0.024711
  C     -0.624561   -0.007743   -0.043646
  C     -1.354699   -1.195592    0.091033
  C     -2.822774   -1.267777    0.169843
  C     -3.521450    0.075424    0.330310
  C     -2.844217    1.119288   -0.543460
  C     -1.377246    1.288645   -0.156846
  H     -0.869418    1.949783   -0.878112
  H     -1.309630    1.803781    0.823589
  H     -3.351556    2.093186   -0.457700
  H     -2.914267    0.822329   -1.606377
  H     -4.587999   -0.025292    0.075210
  H     -3.479782    0.387921    1.389678
  H     -3.149195   -1.776334   -0.768486
  H     -3.102237   -1.997165    0.955566
  H     -0.822922   -2.149955    0.147283
  H      1.001426    2.143811    0.159254
  H      3.457028    2.149581    0.219188
  H      4.722069    0.004549    0.058842
  H      3.501979   -2.160358   -0.158697
  H      1.059050   -2.200483   -0.211450

 Total Charge           Charge          ....    1
 Multiplicity           Mult            ....    2
 Number of Electrons    NEL             ....   85
 Basis Dimension        Dim             ....  874

ORBITAL ENERGIES
----------------
                 SPIN UP ORBITALS
  NO   OCC          E(Eh)            E(eV)
   0   1.0000     -10.246181      -278.8128
   1   1.0000     -10.245104      -278.7834
   2   1.0000     -10.231473      -278.4125
   3   1.0000     -10.217220      -278.0247
   4   1.0000     -10.214902      -277.9616
   5   1.0000     -10.209964      -277.8272
   6   1.0000     -10.201560      -277.5986
   7   1.0000     -10.199587      -277.5449
   8   1.0000     -10.192647      -277.3560
   9   1.0000     -10.188530      -277.2440
  10   1.0000     -10.173495      -276.8349
  11   1.0000     -10.173228      -276.8276
  12   1.0000      -0.901071       -24.5194
  13   1.0000      -0.866760       -23.5857
  14   1.0000      -0.803531       -21.8652
  15   1.0000      -0.780335       -21.2340
  16   1.0000      -0.766966       -20.8702
  17   1.0000      -0.745305       -20.2808
  18   1.0000      -0.657765       -17.8987
  19   1.0000      -0.650563       -17.7027
  20   1.0000      -0.613752       -16.7011
  21   1.0000      -0.603338       -16.4176
  22   1.0000      -0.552206       -15.0263
  23   1.0000      -0.534512       -14.5448
  24   1.0000      -0.500874       -13.6295
  25   1.0000      -0.485526       -13.2118
  26   1.0000      -0.477469       -12.9926
  27   1.0000      -0.454314       -12.3625
  28   1.0000      -0.446691       -12.1551
  29   1.0000      -0.443189       -12.0598
  30   1.0000      -0.436451       -11.8764
  31   1.0000      -0.418737       -11.3944
  32   1.0000      -0.416850       -11.3431
  33   1.0000      -0.404843       -11.0163
  34   1.0000      -0.391118       -10.6429
  35   1.0000      -0.376371       -10.2416
  36   1.0000      -0.365234        -9.9385
  37   1.0000      -0.338059        -9.1991
  38   1.0000      -0.334519        -9.1027
  39   1.0000      -0.327898        -8.9226
  40   1.0000      -0.319776        -8.7015
  41   1.0000      -0.286715        -7.8019
  42   1.0000      -0.259265        -7.0550
  43   0.0000      -0.089212        -2.4276
  44   0.0000      -0.036339        -0.9888
  45   0.0000      -0.009346        -0.2543
  46   0.0000      -0.000339        -0.0092
  47   0.0000       0.002768         0.0753

                 SPIN DOWN ORBITALS
  NO   OCC          E(Eh)            E(eV)
   0   1.0000     -10.244035      -278.7544
   1   1.0000     -10.238972      -278.6166
   2   1.0000     -10.230608      -278.3890
   3   1.0000     -10.214130      -277.9406
   4   1.0000     -10.212894      -277.9070
   5   1.0000     -10.208629      -277.7909
   6   1.0000     -10.202096      -277.6132
   7   1.0000     -10.200547      -277.5710
   8   1.0000     -10.192703      -277.3575
   9   1.0000     -10.188585      -277.2455
  10   1.0000     -10.173459      -276.8339
  11   1.0000     -10.173197      -276.8268
  12   1.0000      -0.895002       -24.3543
  13   1.0000      -0.859959       -23.4007
  14   1.0000      -0.800487       -21.7824
  15   1.0000      -0.777387       -21.1538
  16   1.0000      -0.762938       -20.7606
  17   1.0000      -0.737611       -20.0714
  18   1.0000      -0.655342       -17.8327
  19   1.0000      -0.646580       -17.5943
  20   1.0000      -0.609379       -16.5820
  21   1.0000      -0.600884       -16.3509
  22   1.0000      -0.550450       -14.9785
  23   1.0000      -0.530562       -14.4373
  24   1.0000      -0.498398       -13.5621
  25   1.0000      -0.483418       -13.1545
  26   1.0000      -0.473954       -12.8970
  27   1.0000      -0.450110       -12.2481
  28   1.0000      -0.446096       -12.1389
  29   1.0000      -0.438714       -11.9380
  30   1.0000      -0.432776       -11.7764
  31   1.0000      -0.417171       -11.3518
  32   1.0000      -0.408054       -11.1037
  33   1.0000      -0.400746       -10.9049
  34   1.0000      -0.381452       -10.3798
  35   1.0000      -0.375189       -10.2094
  36   1.0000      -0.364004        -9.9051
  37   1.0000      -0.336257        -9.1500
  38   1.0000      -0.332862        -9.0576
  39   1.0000      -0.326176        -8.8757
  40   1.0000      -0.299604        -8.1526
  41   1.0000      -0.282230        -7.6799
  42   0.0000      -0.186443        -5.0734
  43   0.0000      -0.063694        -1.7332
  44   0.0000      -0.029018        -0.7896
  45   0.0000      -0.008638        -0.2351
  46   0.0000       0.001561         0.0425

MULLIKEN ATOMIC CHARGES AND SPIN POPULATIONS
--------------------------------------------
   0 C :   -0.635317    0.118662
   1 C :   -0.896627   -0.060457
   2 C :   -0.123511    0.212637
   3 C :   -1.041163   -0.025012
   4 C :   -0.528459    0.067638
   5 C :    1.859484    0.112630
   6 C :    1.841439    0.157025
   7 C :   -0.995066    0.413402
   8 C :   -0.215243   -0.039687
   9 C :   -0.312154    0.002776
  10 C :   -0.458817   -0.000468
  11 C :   -0.183680   -0.003566
  12 H :    0.202539    0.003760
  13 H :    0.194526    0.015755
  14 H :    0.181320    0.000574
  15 H :    0.134080   -0.002028
  16 H :    0.214451   -0.000489
  17 H :    0.153214    0.001561
  18 H :    0.188614    0.048623
  19 H :    0.222724    0.022307
  20 H :   -0.057437   -0.022982
  21 H :   -0.173524   -0.007641
  22 H :    0.575478    0.001210
  23 H :    0.389513   -0.003755
  24 H :    0.526529    0.000716
  25 H :   -0.062913   -0.013190
Sum of atomic charges         :    1.0000000

LOEWDIN ATOMIC CHARGES AND SPIN POPULATIONS
-------------------------------------------
   0 C :    0.262748    0.069846
   1 C :    0.246018    0.021516
   2 C :    0.251510    0.101987
   3 C :    0.248766    0.029768
   4 C :    0.258051    0.055367
   5 C :   -0.047245    0.085008
   6 C :    0.023665    0.152854
   7 C :    0.373902    0.241136
   8 C :    0.321040    0.078964
   9 C :    0.294568    0.004378
  10 C :    0.294800    0.003224
  11 C :    0.303078    0.028026
  12 H :   -0.126991    0.003658
  13 H :   -0.099231    0.007926
  14 H :   -0.119334    0.000367
  15 H :   -0.115174    0.000275
  16 H :   -0.121146   -0.000014
  17 H :   -0.118836    0.000759
  18 H :   -0.096367    0.024785
  19 H :   -0.106408    0.012993
  20 H :   -0.148665    0.039100
  21 H :   -0.163682    0.009650
  22 H :   -0.150025   -0.001932
  23 H :   -0.143147    0.023800
  24 H :   -0.151196   -0.005021
  25 H :   -0.170697    0.011581

  Mayer bond orders larger than 0.100000
B(  0-C ,  1-C ) :   1.1592 B(  0-C ,  2-C ) :  -0.2413 B(  0-C ,  4-C ) :  -0.9010
B(  0-C ,  6-C ) :   0.3730 B(  0-C , 11-C ) :   0.1107 B(  0-C , 24-H ) :  -0.1041
B(  0-C , 25-H ) :   1.7733 B(  1-C ,  2-C ) :   1.0986 B(  1-C ,  3-C ) :   0.4112
B(  1-C , 21-H ) :  -0.1043 B(  1-C , 24-H ) :   0.3949 B(  1-C , 25-H ) :  -0.1550
B(  2-C ,  3-C ) :   1.1145 B(  2-C ,  4-C ) :  -0.2557 B(  2-C ,  5-C ) :  -0.2714
B(  2-C ,  6-C ) :   0.3693 B(  2-C , 21-H ) :  -0.1027 B(  2-C , 23-H ) :   0.7567
B(  2-C , 25-H ) :  -0.1074 B(  3-C ,  4-C ) :   1.0459 B(  3-C ,  5-C ) :   0.1158
B(  3-C , 22-H ) :   0.3006 B(  3-C , 25-H ) :  -0.1339 B(  4-C ,  5-C ) :   0.1145
B(  4-C ,  6-C ) :   0.3931 B(  4-C ,  7-C ) :   0.1680 B(  4-C , 21-H ) :   1.9471
B(  5-C ,  7-C ) :   0.3397 B(  5-C , 21-H ) :  -0.1161 B(  5-C , 24-H ) :   0.1000
B(  5-C , 25-H ) :  -0.1190 B(  6-C ,  7-C ) :  -0.3671 B(  6-C ,  9-C ) :  -0.1201
B(  6-C , 11-C ) :   0.6646 B(  6-C , 12-H ) :  -0.1023 B(  6-C , 20-H ) :  -0.3062
B(  6-C , 21-H ) :  -0.4449 B(  6-C , 22-H ) :   0.1479 B(  6-C , 24-H ) :   0.1048
B(  6-C , 25-H ) :  -0.3928 B(  7-C ,  8-C ) :   0.5870 B(  7-C ,  9-C ) :   0.1016
B(  7-C , 11-C ) :  -0.2236 B(  7-C , 19-H ) :  -0.1262 B(  7-C , 20-H ) :   1.5667
B(  8-C ,  9-C ) :   1.0006 B(  8-C , 10-C ) :   0.1117 B(  8-C , 18-H ) :   1.0064
B(  8-C , 19-H ) :   0.9354 B(  8-C , 20-H ) :  -0.1684 B(  9-C , 10-C ) :   0.9997
B(  9-C , 16-H ) :   0.9407 B(  9-C , 17-H ) :   1.0053 B( 10-C , 11-C ) :   0.9518
B( 10-C , 14-H ) :   0.9564 B( 10-C , 15-H ) :   1.0311 B( 11-C , 12-H ) :   0.9836
B( 11-C , 13-H ) :   0.9791 B( 21-H , 25-H ) :   0.2510

Dispersion correction           -0.050052432
FINAL SINGLE POINT ENERGY      -465.414188077467

DIPOLE MOMENT
-------------

Method             : SCF
Type of density    : Electron Density
Multiplicity       :   2
Irrep              :   0
Energy             :  -465.3641356451003617 Eh
Relativity type    :
Basis              : AO
                                X                 Y                 Z
Electronic contribution:      9.222573000      -1.554445489       0.143275407
Nuclear contribution   :     -9.269537752       0.974022475      -0.092780432
                        -----------------------------------------
Total Dipole Moment    :     -0.046964753      -0.580423014       0.050494975
                        -----------------------------------------
Magnitude (a.u.)       :      0.584505180
Magnitude (Debye)      :      1.485694097

Rotational constants in cm-1:             0.084417             0.017556             0.014881
Rotational constants in MHz :          2530.764914           526.301253           446.117666

                             ****ORCA TERMINATED NORMALLY****
TOTAL RUN TIME: 0 days 0 hours 9 minutes 1 seconds 561 msec
