                         Program Version 6.0.0  -   RELEASE  -
|  1> !PBE0 aug-cc-pVTZ d3 TightSCF SlowConv RIJCOSX defgrid2
|  2>
|  3> %pal
|  4> nprocs 4
|  5> end
|  6>
|  7> %scf
|  8> MaxIter 1500
|  9> end
| 10>
| 11> %maxcore 3000
| 12>
| 13> !CPCM
| 14> %cpcm smd true
| 15> SMDsolvent "MeCN"
| 16> surfacetype gepol_ses
| 17> rsolv 2.19
| 18> end
| 19>
| 20> * xyz 1 2
| 21> C           1.56411298308256     -1.23948514477004     -0.10418100456342
| 22> C           2.94368174819201     -1.22399346873146     -0.08222881875616
| 23> C           3.62829509556698     -0.00527124649099      0.03533216996641
| 24> C           2.91690679987594      1.20436209520410      0.12189533623917
| 25> C           1.53837367111152      1.19695452226545      0.08354541546876
| 26> C           0.81270320076294     -0.02581622100353     -0.02471147709908
| 27> C          -0.62456099600129     -0.00774337256640     -0.04364594026659
| 28> C          -1.35469923195748     -1.19559169113903      0.09103295930174
| 29> C          -2.82277389645953     -1.26777692582385      0.16984319084975
| 30> C          -3.52145036714036      0.07542391320474      0.33030984445232
| 31> C          -2.84421744986526      1.11928751618814     -0.54346013749953
| 32> C          -1.37724631745571      1.28864519852577     -0.15684571320763
| 33> H          -0.86941817273049      1.94978262536238     -0.87811192857259
| 34> H          -1.30963007910482      1.80378079157142      0.82358949269975
| 35> H          -3.35155550657584      2.09318614428475     -0.45769951109418
| 36> H          -2.91426747189626      0.82232909406415     -1.60637738831724
| 37> H          -4.58799893909126     -0.02529210685066      0.07520987112053
| 38> H          -3.47978220021016      0.38792054597581      1.38967757724746
| 39> H          -3.14919539400669     -1.77633387981961     -0.76848551187315
| 40> H          -3.10223657823725     -1.99716471247534      0.95556557069623
| 41> H          -0.82292218871793     -2.14995476101911      0.14728310793351
| 42> H           1.00142564161039      2.14381086727947      0.15925446288599
| 43> H           3.45702786598241      2.14958081367639      0.21918826417843
| 44> H           4.72206867248084      0.00454899918573      0.05884230889501
| 45> H           3.50197914639113     -2.16035785555081     -0.15869714710684
| 46> H           1.05904956439360     -2.20048274054750     -0.21144959357865
| 47> *
| 48>
| 49>                          ****END OF INPUT****

CARTESIAN COORDINATES (ANGSTROEM)
---------------------------------
  C      1.564113   -1.239485   -0.104181
  C      2.943682   -1.223993   -0.082229
  C      3.628295   -0.005271    0.035332
  C      2.916907    1.204362    0.121895
  C      1.538374    1.196955    0.083545
  C      0.812703   -0.025816   -0.024711
  C     -0.624561   -0.007743   -0.043646
  C     -1.354699   -1.195592    0.091033
  C     -2.822774   -1.267777    0.169843
  C     -3.521450    0.075424    0.330310
  C     -2.844217    1.119288   -0.543460
  C     -1.377246    1.288645   -0.156846
  H     -0.869418    1.949783   -0.878112
  H     -1.309630    1.803781    0.823589
  H     -3.351556    2.093186   -0.457700
  H     -2.914267    0.822329   -1.606377
  H     -4.587999   -0.025292    0.075210
  H     -3.479782    0.387921    1.389678
  H     -3.149195   -1.776334   -0.768486
  H     -3.102237   -1.997165    0.955566
  H     -0.822922   -2.149955    0.147283
  H      1.001426    2.143811    0.159254
  H      3.457028    2.149581    0.219188
  H      4.722069    0.004549    0.058842
  H      3.501979   -2.160358   -0.158697
  H      1.059050   -2.200483   -0.211450

 Total Charge           Charge          ....    1
 Multiplicity           Mult            ....    2
 Number of Electrons    NEL             ....   85
 Basis Dimension        Dim             ....  874

ORBITAL ENERGIES
----------------
                 SPIN UP ORBITALS
  NO   OCC          E(Eh)            E(eV)
   0   1.0000     -10.305053      -280.4147
   1   1.0000     -10.303070      -280.3608
   2   1.0000     -10.287630      -279.9406
   3   1.0000     -10.272511      -279.5292
   4   1.0000     -10.270804      -279.4828
   5   1.0000     -10.265969      -279.3512
   6   1.0000     -10.256261      -279.0871
   7   1.0000     -10.254348      -279.0350
   8   1.0000     -10.247515      -278.8491
   9   1.0000     -10.243951      -278.7521
  10   1.0000     -10.228425      -278.3296
  11   1.0000     -10.227998      -278.3180
  12   1.0000      -0.930314       -25.3151
  13   1.0000      -0.895320       -24.3629
  14   1.0000      -0.829864       -22.5817
  15   1.0000      -0.805937       -21.9307
  16   1.0000      -0.792559       -21.5666
  17   1.0000      -0.770286       -20.9605
  18   1.0000      -0.679922       -18.5016
  19   1.0000      -0.672435       -18.2979
  20   1.0000      -0.634273       -17.2594
  21   1.0000      -0.623823       -16.9751
  22   1.0000      -0.570725       -15.5302
  23   1.0000      -0.552663       -15.0387
  24   1.0000      -0.517818       -14.0905
  25   1.0000      -0.501772       -13.6539
  26   1.0000      -0.494118       -13.4456
  27   1.0000      -0.469802       -12.7840
  28   1.0000      -0.460469       -12.5300
  29   1.0000      -0.458767       -12.4837
  30   1.0000      -0.451209       -12.2780
  31   1.0000      -0.433429       -11.7942
  32   1.0000      -0.433096       -11.7851
  33   1.0000      -0.418942       -11.4000
  34   1.0000      -0.406792       -11.0694
  35   1.0000      -0.388075       -10.5601
  36   1.0000      -0.376713       -10.2509
  37   1.0000      -0.350241        -9.5305
  38   1.0000      -0.346268        -9.4224
  39   1.0000      -0.339709        -9.2440
  40   1.0000      -0.333068        -9.0632
  41   1.0000      -0.299549        -8.1511
  42   1.0000      -0.273029        -7.4295
  43   0.0000      -0.088947        -2.4204
  44   0.0000      -0.033492        -0.9114
  45   0.0000      -0.004179        -0.1137
  46   0.0000       0.003899         0.1061
  47   0.0000       0.007755         0.2110

                 SPIN DOWN ORBITALS
  NO   OCC          E(Eh)            E(eV)
   0   1.0000     -10.302824      -280.3541
   1   1.0000     -10.296227      -280.1746
   2   1.0000     -10.286985      -279.9231
   3   1.0000     -10.269067      -279.4355
   4   1.0000     -10.268512      -279.4204
   5   1.0000     -10.264389      -279.3082
   6   1.0000     -10.257089      -279.1096
   7   1.0000     -10.255616      -279.0695
   8   1.0000     -10.247618      -278.8519
   9   1.0000     -10.244018      -278.7539
  10   1.0000     -10.228387      -278.3285
  11   1.0000     -10.227970      -278.3172
  12   1.0000      -0.923576       -25.1318
  13   1.0000      -0.887623       -24.1535
  14   1.0000      -0.826775       -22.4977
  15   1.0000      -0.802640       -21.8409
  16   1.0000      -0.788121       -21.4459
  17   1.0000      -0.761506       -20.7216
  18   1.0000      -0.677332       -18.4312
  19   1.0000      -0.668032       -18.1781
  20   1.0000      -0.629516       -17.1300
  21   1.0000      -0.621181       -16.9032
  22   1.0000      -0.568866       -15.4796
  23   1.0000      -0.548204       -14.9174
  24   1.0000      -0.515081       -14.0161
  25   1.0000      -0.499653       -13.5962
  26   1.0000      -0.489906       -13.3310
  27   1.0000      -0.465000       -12.6533
  28   1.0000      -0.459866       -12.5136
  29   1.0000      -0.453849       -12.3499
  30   1.0000      -0.447325       -12.1723
  31   1.0000      -0.431787       -11.7495
  32   1.0000      -0.422495       -11.4967
  33   1.0000      -0.415013       -11.2931
  34   1.0000      -0.395492       -10.7619
  35   1.0000      -0.386899       -10.5280
  36   1.0000      -0.375531       -10.2187
  37   1.0000      -0.348235        -9.4760
  38   1.0000      -0.344267        -9.3680
  39   1.0000      -0.337628        -9.1873
  40   1.0000      -0.310658        -8.4534
  41   1.0000      -0.294873        -8.0239
  42   0.0000      -0.183797        -5.0014
  43   0.0000      -0.059099        -1.6082
  44   0.0000      -0.025198        -0.6857
  45   0.0000      -0.002917        -0.0794
  46   0.0000       0.007326         0.1993

MULLIKEN ATOMIC CHARGES AND SPIN POPULATIONS
--------------------------------------------
   0 C :   -0.705173    0.120499
   1 C :   -0.923711   -0.063874
   2 C :   -0.257238    0.209934
   3 C :   -1.109282   -0.031022
   4 C :   -0.608498    0.070011
   5 C :    1.513211    0.110394
   6 C :    1.627607    0.172154
   7 C :   -1.020937    0.406201
   8 C :   -0.230724   -0.039560
   9 C :   -0.354331    0.000584
  10 C :   -0.479450   -0.004308
  11 C :   -0.245267   -0.000357
  12 H :    0.263102    0.005121
  13 H :    0.243377    0.016623
  14 H :    0.189859    0.000531
  15 H :    0.182373   -0.002004
  16 H :    0.219430   -0.000262
  17 H :    0.201614    0.001571
  18 H :    0.234527    0.051396
  19 H :    0.248977    0.023518
  20 H :    0.095307   -0.029104
  21 H :    0.032768   -0.006030
  22 H :    0.664851    0.001299
  23 H :    0.512942   -0.002903
  24 H :    0.644431   -0.000132
  25 H :    0.060235   -0.010280
Sum of atomic charges         :    1.0000000

LOEWDIN ATOMIC CHARGES AND SPIN POPULATIONS
-------------------------------------------
   0 C :    0.260823    0.070999
   1 C :    0.244450    0.016564
   2 C :    0.249856    0.102562
   3 C :    0.247243    0.024472
   4 C :    0.256094    0.056423
   5 C :   -0.051318    0.080260
   6 C :    0.021337    0.154257
   7 C :    0.374418    0.249130
   8 C :    0.323170    0.080227
   9 C :    0.295208    0.004348
  10 C :    0.295741    0.003228
  11 C :    0.305405    0.028415
  12 H :   -0.126449    0.003691
  13 H :   -0.098541    0.007939
  14 H :   -0.118786    0.000339
  15 H :   -0.114927    0.000252
  16 H :   -0.120710   -0.000041
  17 H :   -0.118622    0.000715
  18 H :   -0.095680    0.024632
  19 H :   -0.105728    0.012844
  20 H :   -0.147340    0.040872
  21 H :   -0.163088    0.010643
  22 H :   -0.149451   -0.003477
  23 H :   -0.142493    0.024673
  24 H :   -0.150522   -0.006473
  25 H :   -0.170089    0.012507

  Mayer bond orders larger than 0.100000
B(  0-C ,  1-C ) :   1.2654 B(  0-C ,  2-C ) :  -0.2146 B(  0-C ,  4-C ) :  -0.7479
B(  0-C ,  5-C ) :   0.2159 B(  0-C ,  6-C ) :   0.2426 B(  0-C , 22-H ) :   0.1032
B(  0-C , 25-H ) :   1.5742 B(  1-C ,  2-C ) :   1.2671 B(  1-C ,  3-C ) :   0.3660
B(  1-C , 24-H ) :   0.2070 B(  1-C , 25-H ) :  -0.1143 B(  2-C ,  3-C ) :   1.2876
B(  2-C ,  4-C ) :  -0.2114 B(  2-C ,  5-C ) :  -0.2650 B(  2-C ,  6-C ) :   0.3209
B(  2-C , 22-H ) :   0.1034 B(  2-C , 23-H ) :   0.5652 B(  3-C ,  4-C ) :   1.2307
B(  3-C , 22-H ) :   0.1383 B(  3-C , 25-H ) :  -0.1040 B(  4-C ,  5-C ) :   0.3972
B(  4-C ,  6-C ) :   0.2291 B(  4-C ,  7-C ) :   0.1288 B(  4-C , 21-H ) :   1.5370
B(  5-C ,  6-C ) :   0.2693 B(  5-C ,  7-C ) :   0.1743 B(  5-C , 21-H ) :   0.1382
B(  6-C , 11-C ) :   0.8276 B(  6-C , 20-H ) :  -0.1070 B(  6-C , 21-H ) :  -0.4553
B(  6-C , 22-H ) :   0.1348 B(  6-C , 24-H ) :   0.1019 B(  6-C , 25-H ) :  -0.3452
B(  7-C ,  8-C ) :   0.7655 B(  7-C , 11-C ) :  -0.2037 B(  7-C , 20-H ) :   1.3461
B(  8-C ,  9-C ) :   1.0399 B(  8-C , 10-C ) :   0.1093 B(  8-C , 18-H ) :   0.9340
B(  8-C , 19-H ) :   0.8891 B(  8-C , 20-H ) :  -0.1149 B(  9-C , 10-C ) :   1.0402
B(  9-C , 16-H ) :   0.9173 B(  9-C , 17-H ) :   0.9549 B( 10-C , 11-C ) :   0.9991
B( 10-C , 14-H ) :   0.9330 B( 10-C , 15-H ) :   0.9747 B( 11-C , 12-H ) :   0.9036
B( 11-C , 13-H ) :   0.9233 B( 21-H , 25-H ) :   0.2142

Dispersion correction           -0.025823327
FINAL SINGLE POINT ENERGY      -465.126365981854

DIPOLE MOMENT
-------------

Method             : SCF
Type of density    : Electron Density
Multiplicity       :   2
Irrep              :   0
Energy             :  -465.1005426547909565 Eh
Relativity type    :
Basis              : AO
                                X                 Y                 Z
Electronic contribution:      9.143155531      -1.555212274       0.144140876
Nuclear contribution   :     -9.269537752       0.974022475      -0.092780432
                        -----------------------------------------
Total Dipole Moment    :     -0.126382221      -0.581189798       0.051360443
                        -----------------------------------------
Magnitude (a.u.)       :      0.596985714
Magnitude (Debye)      :      1.517417094

Rotational constants in cm-1:             0.084417             0.017556             0.014881
Rotational constants in MHz :          2530.764914           526.301253           446.117666

                             ****ORCA TERMINATED NORMALLY****
TOTAL RUN TIME: 0 days 0 hours 14 minutes 53 seconds 376 msec
