                         Program Version 6.0.0  -   RELEASE  -
|  1> !r2SCAN freq aug-cc-pVTZ d3 TightSCF SlowConv RIJCOSX defgrid2
|  2>
|  3> %pal
|  4> nprocs 12
|  5> end
|  6>
|  7> %scf
|  8> MaxIter 1500
|  9> end
| 10>
| 11> %maxcore 5000
| 12>
| 13> !CPCM
| 14> %cpcm smd true
| 15> SMDsolvent "MeCN"
| 16> surfacetype gepol_ses
| 17> rsolv 2.19
| 18> end
| 19>
| 20> * xyz 1 2
| 21> C           1.33602392096454      0.00195085261452     -0.00126411015364
| 22> C           0.74787673606179      1.28994669778956     -0.00376912543815
| 23> C          -0.60994988517845      1.40557188929593     -0.00277952680425
| 24> C          -1.42177349323046      0.24045873064659     -0.00095705449702
| 25> C          -0.83816553126259     -1.04870129338243     -0.00332706533915
| 26> C           0.52379816511238     -1.16064369007274     -0.00283531357873
| 27> H           0.98576006696298     -2.14003031519030     -0.00327940497632
| 28> H          -1.45330987153171     -1.93605337373122     -0.00358506011321
| 29> O          -2.71952889430661      0.46159925903760      0.00279606144543
| 30> C          -3.63659525594850     -0.65808194410573      0.00270500878452
| 31> H          -4.62483699005544     -0.21116714347188      0.00535653043533
| 32> H          -3.48935269433748     -1.25479246404466     -0.89628271541407
| 33> H          -3.48628689288721     -1.25840769548376      0.89889459120684
| 34> H          -1.09293200488174      2.37388554012629     -0.00253656543301
| 35> H           1.37408241364927      2.17240172742400     -0.00669641345158
| 36> S           3.03694774893306     -0.23535391496612      0.00639681113772
| 37> H           3.39333796193619      1.06999753751435      0.01125005218929
| 38> *
| 39>
| 40>                          ****END OF INPUT****

CARTESIAN COORDINATES (ANGSTROEM)
---------------------------------
  C      1.336024    0.001951   -0.001264
  C      0.747877    1.289947   -0.003769
  C     -0.609950    1.405572   -0.002780
  C     -1.421773    0.240459   -0.000957
  C     -0.838166   -1.048701   -0.003327
  C      0.523798   -1.160644   -0.002835
  H      0.985760   -2.140030   -0.003279
  H     -1.453310   -1.936053   -0.003585
  O     -2.719529    0.461599    0.002796
  C     -3.636595   -0.658082    0.002705
  H     -4.624837   -0.211167    0.005357
  H     -3.489353   -1.254792   -0.896283
  H     -3.486287   -1.258408    0.898895
  H     -1.092932    2.373886   -0.002537
  H      1.374082    2.172402   -0.006696
  S      3.036948   -0.235354    0.006397
  H      3.393338    1.069998    0.011250

 Total Charge           Charge          ....    1
 Multiplicity           Mult            ....    2
 Number of Electrons    NEL             ....   73
 Basis Dimension        Dim             ....  602

ORBITAL ENERGIES
----------------
                 SPIN UP ORBITALS
  NO   OCC          E(Eh)            E(eV)
   0   1.0000     -88.635447     -2411.8931
   1   1.0000     -19.054856      -518.5090
   2   1.0000     -10.162009      -276.5223
   3   1.0000     -10.138284      -275.8767
   4   1.0000     -10.099125      -274.8112
   5   1.0000     -10.092226      -274.6234
   6   1.0000     -10.087936      -274.5067
   7   1.0000     -10.083526      -274.3867
   8   1.0000     -10.083194      -274.3776
   9   1.0000      -7.928118      -215.7351
  10   1.0000      -5.873548      -159.8274
  11   1.0000      -5.870411      -159.7420
  12   1.0000      -5.869269      -159.7109
  13   1.0000      -1.096138       -29.8274
  14   1.0000      -0.884004       -24.0550
  15   1.0000      -0.810962       -22.0674
  16   1.0000      -0.770879       -20.9767
  17   1.0000      -0.736183       -20.0326
  18   1.0000      -0.683674       -18.6037
  19   1.0000      -0.627061       -17.0632
  20   1.0000      -0.595221       -16.1968
  21   1.0000      -0.540041       -14.6953
  22   1.0000      -0.509805       -13.8725
  23   1.0000      -0.485287       -13.2053
  24   1.0000      -0.478592       -13.0232
  25   1.0000      -0.448512       -12.2046
  26   1.0000      -0.436359       -11.8739
  27   1.0000      -0.424650       -11.5553
  28   1.0000      -0.409498       -11.1430
  29   1.0000      -0.401270       -10.9191
  30   1.0000      -0.370184       -10.0732
  31   1.0000      -0.366264        -9.9665
  32   1.0000      -0.362278        -9.8581
  33   1.0000      -0.333220        -9.0674
  34   1.0000      -0.307875        -8.3777
  35   1.0000      -0.288659        -7.8548
  36   1.0000      -0.237403        -6.4601
  37   0.0000      -0.082952        -2.2572
  38   0.0000      -0.076694        -2.0870
  39   0.0000      -0.038681        -1.0526
  40   0.0000       0.005089         0.1385
  41   0.0000       0.006872         0.1870

                 SPIN DOWN ORBITALS
  NO   OCC          E(Eh)            E(eV)
   0   1.0000     -88.633431     -2411.8383
   1   1.0000     -19.049101      -518.3524
   2   1.0000     -10.159075      -276.4425
   3   1.0000     -10.134115      -275.7633
   4   1.0000     -10.099292      -274.8157
   5   1.0000     -10.091386      -274.6006
   6   1.0000     -10.087913      -274.5061
   7   1.0000     -10.082428      -274.3568
   8   1.0000     -10.082245      -274.3518
   9   1.0000      -7.926778      -215.6986
  10   1.0000      -5.872452      -159.7975
  11   1.0000      -5.868253      -159.6833
  12   1.0000      -5.865191      -159.6000
  13   1.0000      -1.087638       -29.5961
  14   1.0000      -0.876641       -23.8546
  15   1.0000      -0.802920       -21.8486
  16   1.0000      -0.768440       -20.9103
  17   1.0000      -0.731816       -19.9137
  18   1.0000      -0.676045       -18.3961
  19   1.0000      -0.623019       -16.9532
  20   1.0000      -0.590145       -16.0587
  21   1.0000      -0.537989       -14.6394
  22   1.0000      -0.508254       -13.8303
  23   1.0000      -0.482167       -13.1204
  24   1.0000      -0.464084       -12.6284
  25   1.0000      -0.445960       -12.1352
  26   1.0000      -0.435685       -11.8556
  27   1.0000      -0.422165       -11.4877
  28   1.0000      -0.399464       -10.8700
  29   1.0000      -0.393647       -10.7117
  30   1.0000      -0.368310       -10.0222
  31   1.0000      -0.357892        -9.7387
  32   1.0000      -0.349642        -9.5143
  33   1.0000      -0.330207        -8.9854
  34   1.0000      -0.288338        -7.8461
  35   1.0000      -0.281803        -7.6682
  36   0.0000      -0.206004        -5.6056
  37   0.0000      -0.067855        -1.8464
  38   0.0000      -0.055142        -1.5005
  39   0.0000      -0.035900        -0.9769
  40   0.0000       0.006779         0.1845

MULLIKEN ATOMIC CHARGES AND SPIN POPULATIONS
--------------------------------------------
   0 C :    0.851922    0.184437
   1 C :   -0.590880   -0.022675
   2 C :   -0.789096    0.055825
   3 C :    1.211421    0.163842
   4 C :   -0.172927    0.019281
   5 C :   -0.790422    0.053448
   6 H :    0.443456    0.000345
   7 H :    0.444773    0.014308
   8 O :   -0.611981    0.176117
   9 C :   -0.621663   -0.016061
  10 H :    0.249996   -0.001014
  11 H :    0.284576    0.007577
  12 H :    0.284211    0.007608
  13 H :    0.567615    0.007467
  14 H :    0.293008    0.000769
  15 S :   -0.219880    0.392496
  16 H :    0.165870   -0.043770
Sum of atomic charges         :    1.0000000

LOEWDIN ATOMIC CHARGES AND SPIN POPULATIONS
-------------------------------------------
   0 C :   -0.538442    0.163581
   1 C :    0.180863    0.042618
   2 C :    0.264161    0.064971
   3 C :   -0.342077    0.127679
   4 C :    0.266045    0.061760
   5 C :    0.166211    0.061193
   6 H :   -0.167389    0.003612
   7 H :   -0.170353    0.006273
   8 O :    0.653593    0.149082
   9 C :    0.450048    0.015112
  10 H :   -0.165186   -0.000423
  11 H :   -0.156641    0.004167
  12 H :   -0.156444    0.004162
  13 H :   -0.150611    0.007392
  14 H :   -0.169842   -0.000456
  15 S :    1.507940    0.251808
  16 H :   -0.471876    0.037469

  Mayer bond orders larger than 0.100000
B(  0-C ,  1-C ) :   0.7664 B(  0-C ,  5-C ) :   0.9542 B(  0-C , 15-S ) :   0.4707
B(  1-C ,  2-C ) :   1.3947 B(  1-C ,  3-C ) :  -0.2914 B(  1-C , 14-H ) :   0.7658
B(  2-C ,  3-C ) :   0.5829 B(  2-C ,  4-C ) :   0.1360 B(  2-C ,  8-O ) :   0.3098
B(  2-C , 13-H ) :   0.3163 B(  3-C ,  4-C ) :   0.8122 B(  3-C ,  5-C ) :  -0.2934
B(  3-C ,  8-O ) :   0.4684 B(  4-C ,  5-C ) :   1.0359 B(  4-C ,  7-H ) :   0.4363
B(  4-C ,  8-O ) :  -0.1462 B(  4-C ,  9-C ) :  -0.1224 B(  4-C , 15-S ) :   0.1273
B(  5-C ,  6-H ) :   0.6322 B(  5-C , 15-S ) :   0.1405 B(  8-O ,  9-C ) :   0.9470
B(  9-C , 10-H ) :   0.9708 B(  9-C , 11-H ) :   0.8948 B(  9-C , 12-H ) :   0.8950
B( 15-S , 16-H ) :   1.0397

Dispersion correction           -0.005470378
FINAL SINGLE POINT ENERGY      -744.704285143467

DIPOLE MOMENT
-------------

Method             : SCF
Type of density    : Electron Density
Multiplicity       :   2
Irrep              :   0
Energy             :  -744.6988147650955625 Eh
Relativity type    :
Basis              : AO
                                X                 Y                 Z
Electronic contribution:      7.631114673       0.919806580       0.002373826
Nuclear contribution   :     -7.926123959      -1.070217374      -0.002885032
                        -----------------------------------------
Total Dipole Moment    :     -0.295009286      -0.150410794      -0.000511206
                        -----------------------------------------
Magnitude (a.u.)       :      0.331140676
Magnitude (Debye)      :      0.841692707

VIBRATIONAL FREQUENCIES
-----------------------

Scaling factor for frequencies =  1.000000000  (already applied!)

     0:       0.00 cm**-1
     1:       0.00 cm**-1
     2:       0.00 cm**-1
     3:       0.00 cm**-1
     4:       0.00 cm**-1
     5:       0.00 cm**-1
     6:      59.33 cm**-1
     7:     140.51 cm**-1
     8:     169.93 cm**-1
     9:     199.48 cm**-1
    10:     289.02 cm**-1
    11:     302.06 cm**-1
    12:     331.31 cm**-1
    13:     362.10 cm**-1
    14:     402.78 cm**-1
    15:     496.28 cm**-1
    16:     505.08 cm**-1
    17:     610.06 cm**-1
    18:     654.06 cm**-1
    19:     724.60 cm**-1
    20:     778.00 cm**-1
    21:     809.61 cm**-1
    22:     840.67 cm**-1
    23:     926.97 cm**-1
    24:     971.70 cm**-1
    25:     975.72 cm**-1
    26:     988.23 cm**-1
    27:     999.56 cm**-1
    28:    1128.66 cm**-1
    29:    1135.73 cm**-1
    30:    1154.40 cm**-1
    31:    1193.30 cm**-1
    32:    1196.24 cm**-1
    33:    1314.16 cm**-1
    34:    1335.74 cm**-1
    35:    1362.89 cm**-1
    36:    1444.32 cm**-1
    37:    1464.52 cm**-1
    38:    1468.32 cm**-1
    39:    1494.42 cm**-1
    40:    1505.16 cm**-1
    41:    1510.50 cm**-1
    42:    1639.54 cm**-1
    43:    2615.75 cm**-1
    44:    3052.55 cm**-1
    45:    3144.82 cm**-1
    46:    3185.81 cm**-1
    47:    3188.11 cm**-1
    48:    3194.57 cm**-1
    49:    3208.01 cm**-1
    50:    3228.11 cm**-1

IR SPECTRUM
-----------

 Mode   freq       eps      Int      T**2         TX        TY        TZ
       cm**-1   L/(mol*cm) km/mol    a.u.
----------------------------------------------------------------------------
  6:     59.33   0.000158    0.80  0.000833  ( 0.000664 -0.000024 -0.028862)
  7:    140.51   0.001533    7.75  0.003405  (-0.002120 -0.000375  0.058315)
  8:    169.93   0.000028    0.14  0.000051  (-0.003589  0.000935 -0.006092)
  9:    199.48   0.001584    8.00  0.002477  (-0.049030  0.008544 -0.000506)
 10:    289.02   0.001245    6.29  0.001344  ( 0.000797  0.000313  0.036651)
 11:    302.06   0.000285    1.44  0.000294  ( 0.014974 -0.008362 -0.000138)
 12:    331.31   0.004011   20.27  0.003778  ( 0.000896  0.000509 -0.061459)
 13:    362.10   0.000258    1.30  0.000222  (-0.011996 -0.008799 -0.000906)
 14:    402.78   0.002089   10.56  0.001619  (-0.000663  0.000425  0.040227)
 15:    496.28   0.005839   29.51  0.003671  (-0.000549 -0.000152  0.060590)
 16:    505.08   0.001265    6.39  0.000781  (-0.027437  0.005309  0.000540)
 17:    610.06   0.000152    0.77  0.000078  (-0.005818  0.006620  0.000093)
 18:    654.06   0.019651   99.31  0.009376  (-0.095481  0.016104  0.000100)
 19:    724.60   0.000142    0.72  0.000061  (-0.000435 -0.000294 -0.007799)
 20:    778.00   0.000031    0.16  0.000012  (-0.000512  0.000273 -0.003479)
 21:    809.61   0.001523    7.70  0.000587  (-0.019753 -0.014015 -0.000740)
 22:    840.67   0.022267  112.53  0.008266  (-0.001029  0.000094  0.090911)
 23:    926.97   0.005858   29.60  0.001972  (-0.035917 -0.026115  0.000355)
 24:    971.70   0.000002    0.01  0.000001  (-0.000839  0.000097 -0.000203)
 25:    975.72   0.000047    0.24  0.000015  ( 0.002320  0.002462  0.001897)
 26:    988.23   0.019471   98.40  0.006149  (-0.065254 -0.043479 -0.000030)
 27:    999.56   0.007673   38.78  0.002396  (-0.048900 -0.002112 -0.000033)
 28:   1128.66   0.009831   49.68  0.002718  (-0.051469  0.008311 -0.000291)
 29:   1135.73   0.003828   19.34  0.001052  ( 0.003499  0.032240 -0.000058)
 30:   1154.40   0.000059    0.30  0.000016  (-0.000378  0.000773 -0.003884)
 31:   1193.30   0.009150   46.24  0.002393  (-0.048605 -0.005502 -0.000080)
 32:   1196.24   0.007547   38.14  0.001969  (-0.044324 -0.002032 -0.000241)
 33:   1314.16   0.002437   12.32  0.000579  ( 0.017195  0.016824 -0.000132)
 34:   1335.74   0.072842  368.11  0.017018  ( 0.130221  0.007763 -0.000093)
 35:   1362.89   0.024172  122.16  0.005535  ( 0.074163 -0.005878 -0.000028)
 36:   1444.32   0.037167  187.83  0.008031  (-0.086027  0.025098  0.000199)
 37:   1464.52   0.004740   23.95  0.001010  (-0.008758 -0.000897 -0.030537)
 38:   1468.32   0.010214   51.62  0.002171  (-0.045737 -0.006222  0.006340)
 39:   1494.42   0.018228   92.12  0.003806  ( 0.059996  0.014377  0.000126)
 40:   1505.16   0.031458  158.98  0.006522  (-0.077149  0.023878 -0.000046)
 41:   1510.50   0.052288  264.24  0.010802  ( 0.103878  0.003432  0.000015)
 42:   1639.54   0.012927   65.33  0.002460  (-0.049594 -0.000971  0.000163)
 43:   2615.75   0.023901  120.79  0.002851  ( 0.046281  0.026635  0.000294)
 44:   3052.55   0.005148   26.02  0.000526  ( 0.020082  0.011087  0.000243)
 45:   3144.82   0.001784    9.02  0.000177  ( 0.000519  0.000426  0.013289)
 46:   3185.81   0.003213   16.24  0.000315  (-0.017513  0.002830  0.000081)
 47:   3188.11   0.000138    0.70  0.000013  (-0.000740  0.003594 -0.000021)
 48:   3194.57   0.000036    0.18  0.000004  ( 0.001855  0.000101  0.000276)
 49:   3208.01   0.000410    2.07  0.000040  ( 0.002652  0.005728  0.000001)
 50:   3228.11   0.000755    3.82  0.000073  (-0.000391  0.008536  0.000044)

--------------------------
THERMOCHEMISTRY AT 298.15K
--------------------------

Temperature         ...   298.15 K
Pressure            ...     1.00 atm
Total Mass          ...   140.20 AMU
Quasi RRHO          ...     True
Cut-Off Frequency   ...     1.00 cm^-1

Throughout the following assumptions are being made:
  (1) The electronic state is orbitally nondegenerate
      but the spin degeneracy is treated
  (2) There are no thermally accessible electronically excited states
  (3) Hindered rotations indicated by low frequency modes are not
      treated as such but are treated as vibrations and this may
      cause some error
  (4) All equations used are the standard statistical mechanics
      equations for an ideal gas
  (5) All vibrations are strictly harmonic

freq.      59.33  E(vib)   ...       0.51
freq.     140.51  E(vib)   ...       0.41
freq.     169.93  E(vib)   ...       0.38
freq.     199.48  E(vib)   ...       0.35
freq.     289.02  E(vib)   ...       0.27
freq.     302.06  E(vib)   ...       0.26
freq.     331.31  E(vib)   ...       0.24
freq.     362.10  E(vib)   ...       0.22
freq.     402.78  E(vib)   ...       0.19
freq.     496.28  E(vib)   ...       0.14
freq.     505.08  E(vib)   ...       0.14
freq.     610.06  E(vib)   ...       0.10
freq.     654.06  E(vib)   ...       0.08
freq.     724.60  E(vib)   ...       0.06
freq.     778.00  E(vib)   ...       0.05
freq.     809.61  E(vib)   ...       0.05
freq.     840.67  E(vib)   ...       0.04
freq.     926.97  E(vib)   ...       0.03
freq.     971.70  E(vib)   ...       0.03
freq.     975.72  E(vib)   ...       0.03
freq.     988.23  E(vib)   ...       0.02
freq.     999.56  E(vib)   ...       0.02
freq.    1128.66  E(vib)   ...       0.01
freq.    1135.73  E(vib)   ...       0.01
freq.    1154.40  E(vib)   ...       0.01
freq.    1193.30  E(vib)   ...       0.01
freq.    1196.24  E(vib)   ...       0.01
freq.    1314.16  E(vib)   ...       0.01
freq.    1335.74  E(vib)   ...       0.01
freq.    1362.89  E(vib)   ...       0.01
freq.    1444.32  E(vib)   ...       0.00
freq.    1464.52  E(vib)   ...       0.00
freq.    1468.32  E(vib)   ...       0.00
freq.    1494.42  E(vib)   ...       0.00
freq.    1505.16  E(vib)   ...       0.00
freq.    1510.50  E(vib)   ...       0.00
freq.    1639.54  E(vib)   ...       0.00
freq.    2615.75  E(vib)   ...       0.00
freq.    3052.55  E(vib)   ...       0.00
freq.    3144.82  E(vib)   ...       0.00
freq.    3185.81  E(vib)   ...       0.00
freq.    3188.11  E(vib)   ...       0.00
freq.    3194.57  E(vib)   ...       0.00
freq.    3208.01  E(vib)   ...       0.00
freq.    3228.11  E(vib)   ...       0.00

------------
INNER ENERGY
------------

The inner energy is: U= E(el) + E(ZPE) + E(vib) + E(rot) + E(trans)
    E(el)   - is the total energy from the electronic structure calculation
              = E(kin-el) + E(nuc-el) + E(el-el) + E(nuc-nuc)
    E(ZPE)  - the the zero temperature vibrational energy from the frequency calculation
    E(vib)  - the the finite temperature correction to E(ZPE) due to population
              of excited vibrational states
    E(rot)  - is the rotational thermal energy
    E(trans)- is the translational thermal energy

Summary of contributions to the inner energy U:
Electronic energy                ...   -744.70428514 Eh
Zero point energy                ...      0.13145640 Eh      82.49 kcal/mol
Thermal vibrational correction   ...      0.00596885 Eh       3.75 kcal/mol
Thermal rotational correction    ...      0.00141627 Eh       0.89 kcal/mol
Thermal translational correction ...      0.00141627 Eh       0.89 kcal/mol
-----------------------------------------------------------------------
Total thermal energy                   -744.56402735 Eh

Summary of corrections to the electronic energy:
(perhaps to be used in another calculation)
Total thermal correction                  0.00880140 Eh       5.52 kcal/mol
Non-thermal (ZPE) correction              0.13145640 Eh      82.49 kcal/mol
-----------------------------------------------------------------------
Total correction                          0.14025779 Eh      88.01 kcal/mol

--------
ENTHALPY
--------

The enthalpy is H = U + kB*T
                kB is Boltzmann's constant
Total thermal energy              ...   -744.56402735 Eh
Thermal Enthalpy correction       ...      0.00094421 Eh       0.59 kcal/mol
-----------------------------------------------------------------------
Total Enthalpy                    ...   -744.56308314 Eh

Note: Only C1 symmetry has been detected, increase convergence thresholds
      if your molecule has a higher symmetry. Symmetry factor of 1.0 is
      used for the rotational entropy correction.

Note: Rotational entropy computed according to Herzberg
Infrared and Raman Spectra, Chapter V,1, Van Nostrand Reinhold, 1945
Point Group:  C1, Symmetry Number:   1
Rotational constants in cm-1:     0.154624     0.023843     0.020740

Vibrational entropy computed according to the QRRHO of S. Grimme
Chem.Eur.J. 2012 18 9955 using a reference frequency of 100.0 cm-1

-------
ENTROPY
-------

The entropy contributions are T*S = T*(S(el)+S(vib)+S(rot)+S(trans))
     S(el)   - electronic entropy
     S(vib)  - vibrational entropy
     S(rot)  - rotational entropy
     S(trans)- translational entropy
The entropies will be listed as multiplied by the temperature to get
units of energy

Electronic entropy                ...      0.00065446 Eh      0.41 kcal/mol
Vibrational entropy               ...      0.00994890 Eh      6.24 kcal/mol
Rotational entropy                ...      0.01398560 Eh      8.78 kcal/mol
Translational entropy             ...      0.01934980 Eh     12.14 kcal/mol
-----------------------------------------------------------------------
Final entropy term                ...      0.04393876 Eh     27.57 kcal/mol

In case the symmetry of your molecule has not been determined correctly
or in case you have a reason to use a different symmetry number we print
out the resulting rotational entropy values for sn=1,12:

 non-linear molecules -----------------------------------
|  sn= 1 | S(rot)=       0.01398560 Eh      8.78 kcal/mol|
|  sn= 2 | S(rot)=       0.01333115 Eh      8.37 kcal/mol|
|  sn= 3 | S(rot)=       0.01294832 Eh      8.13 kcal/mol|
|  sn= 4 | S(rot)=       0.01267669 Eh      7.95 kcal/mol|
|  sn= 5 | S(rot)=       0.01246600 Eh      7.82 kcal/mol|
|  sn= 6 | S(rot)=       0.01229386 Eh      7.71 kcal/mol|
|  sn= 7 | S(rot)=       0.01214831 Eh      7.62 kcal/mol|
|  sn= 8 | S(rot)=       0.01202224 Eh      7.54 kcal/mol|
|  sn= 9 | S(rot)=       0.01191103 Eh      7.47 kcal/mol|
|  sn=10 | S(rot)=       0.01181155 Eh      7.41 kcal/mol|
|  sn=11 | S(rot)=       0.01172156 Eh      7.36 kcal/mol|
|  sn=12 | S(rot)=       0.01163940 Eh      7.30 kcal/mol|
 linear molecules ---------------------------------------
|  Dinfh | S(rot)=       0.00898514 Eh      5.64 kcal/mol|

                             ****ORCA TERMINATED NORMALLY****
TOTAL RUN TIME: 0 days 0 hours 33 minutes 55 seconds 76 msec
