                         Program Version 6.0.0  -   RELEASE  -
|  1> !B3LYP aug-cc-pVTZ d3 TightSCF SlowConv RIJCOSX defgrid2
|  2>
|  3> %pal
|  4> nprocs 15
|  5> end
|  6>
|  7> %scf
|  8> MaxIter 1500
|  9> end
| 10>
| 11> %maxcore 3500
| 12>
| 13> !CPCM
| 14> %cpcm smd true
| 15> SMDsolvent "WATER"
| 16> surfacetype gepol_ses
| 17> rsolv 1.40
| 18> end
| 19>
| 20> * xyz 0 2
| 21> O           1.91470638718140      3.68438074947034      1.42427791228666
| 22> N           2.68096308945993      2.69375168448893      1.26769968685529
| 23> C           3.77391580515862      2.86611617790763      0.27680202232567
| 24> C           4.43155802114185      1.51994211991304     -0.03530115296342
| 25> C           4.73340248947632      0.69829774992947      1.21810391563609
| 26> C           3.42519309826840      0.42580302914814      1.94119980726915
| 27> C           2.70579217610673      1.70523956651208      2.37690104523736
| 28> C           4.79322172800676      3.87508980195447      0.82020172066500
| 29> C           3.14425995359759      3.42149633811360     -0.99940045320580
| 30> C           3.37488386456858      2.34129799708755      3.60196963848657
| 31> C           1.25335355183061      1.37175446215543      2.71392471745753
| 32> H           5.35765292922926      1.70556085241930     -0.60472877121535
| 33> H           3.75876551381861      0.92933792835036     -0.68368429967338
| 34> H           5.42888308378114      1.26691647113913      1.85777249757383
| 35> H           3.58597216229996     -0.20127854132091      2.83446428065128
| 36> H           2.76741452667512     -0.15000338556619      1.26812064668017
| 37> H           4.26369527400293      4.78489567317599      1.14666574670165
| 38> H           5.36148593564960      3.47818359531948      1.67676804635832
| 39> H           5.51454614342091      4.14822445029490      0.03143381287120
| 40> H           2.68677781882656      4.40345192403324     -0.80882149057439
| 41> H           2.35856298596588      2.74147992136098     -1.37017141185833
| 42> H           3.91629839859089      3.52710620200660     -1.78046613000472
| 43> H           2.90751365674073      3.31881435496866      3.80391606383020
| 44> H           4.45686105296294      2.49742578329982      3.46040550353472
| 45> H           3.23836167981079      1.69582567705536      4.48654381685627
| 46> H           0.71883159023383      2.26983495660360      3.05695397631866
| 47> H           0.73234928593055      0.97814208936524      1.82472152714422
| 48> H           1.22257422130559      0.60584599485455      3.50731645957130
| 49> C           5.50980399137963     -0.53351097116185      0.81636396333535
| 50> O           6.67868338961729     -0.53392563796249      0.53412674849617
| 51> O           4.75697757690545     -1.64256703152170      0.76161649704885
| 52> H           5.34368613905548     -2.36501696039479      0.46736191230387
| 53> *
| 54>
| 55>                          ****END OF INPUT****

CARTESIAN COORDINATES (ANGSTROEM)
---------------------------------
  O      1.914706    3.684381    1.424278
  N      2.680963    2.693752    1.267700
  C      3.773916    2.866116    0.276802
  C      4.431558    1.519942   -0.035301
  C      4.733402    0.698298    1.218104
  C      3.425193    0.425803    1.941200
  C      2.705792    1.705240    2.376901
  C      4.793222    3.875090    0.820202
  C      3.144260    3.421496   -0.999400
  C      3.374884    2.341298    3.601970
  C      1.253354    1.371754    2.713925
  H      5.357653    1.705561   -0.604729
  H      3.758766    0.929338   -0.683684
  H      5.428883    1.266916    1.857772
  H      3.585972   -0.201279    2.834464
  H      2.767415   -0.150003    1.268121
  H      4.263695    4.784896    1.146666
  H      5.361486    3.478184    1.676768
  H      5.514546    4.148224    0.031434
  H      2.686778    4.403452   -0.808821
  H      2.358563    2.741480   -1.370171
  H      3.916298    3.527106   -1.780466
  H      2.907514    3.318814    3.803916
  H      4.456861    2.497426    3.460406
  H      3.238362    1.695826    4.486544
  H      0.718832    2.269835    3.056954
  H      0.732349    0.978142    1.824722
  H      1.222574    0.605846    3.507316
  C      5.509804   -0.533511    0.816364
  O      6.678683   -0.533926    0.534127
  O      4.756978   -1.642567    0.761616
  H      5.343686   -2.365017    0.467362

 Total Charge           Charge          ....    0
 Multiplicity           Mult            ....    2
 Number of Electrons    NEL             ....  109
 Basis Dimension        Dim             .... 1058

ORBITAL ENERGIES
----------------
                 SPIN UP ORBITALS
  NO   OCC          E(Eh)            E(eV)
   0   1.0000     -19.180489      -521.9276
   1   1.0000     -19.133249      -520.6422
   2   1.0000     -19.128991      -520.5263
   3   1.0000     -14.412723      -392.1901
   4   1.0000     -10.314035      -280.6592
   5   1.0000     -10.222501      -278.1684
   6   1.0000     -10.221464      -278.1402
   7   1.0000     -10.192199      -277.3438
   8   1.0000     -10.178349      -276.9669
   9   1.0000     -10.173325      -276.8302
  10   1.0000     -10.161210      -276.5006
  11   1.0000     -10.160828      -276.4902
  12   1.0000     -10.158385      -276.4237
  13   1.0000     -10.157828      -276.4086
  14   1.0000      -1.119636       -30.4668
  15   1.0000      -1.115820       -30.3630
  16   1.0000      -1.030927       -28.0529
  17   1.0000      -0.878743       -23.9118
  18   1.0000      -0.823312       -22.4035
  19   1.0000      -0.795673       -21.6514
  20   1.0000      -0.720938       -19.6177
  21   1.0000      -0.692124       -18.8336
  22   1.0000      -0.684396       -18.6234
  23   1.0000      -0.681297       -18.5390
  24   1.0000      -0.660655       -17.9773
  25   1.0000      -0.601114       -16.3571
  26   1.0000      -0.593390       -16.1470
  27   1.0000      -0.527049       -14.3417
  28   1.0000      -0.508072       -13.8253
  29   1.0000      -0.501375       -13.6431
  30   1.0000      -0.494749       -13.4628
  31   1.0000      -0.484894       -13.1946
  32   1.0000      -0.479097       -13.0369
  33   1.0000      -0.458682       -12.4814
  34   1.0000      -0.450612       -12.2618
  35   1.0000      -0.434929       -11.8350
  36   1.0000      -0.425793       -11.5864
  37   1.0000      -0.418134       -11.3780
  38   1.0000      -0.408292       -11.1102
  39   1.0000      -0.402652       -10.9567
  40   1.0000      -0.387833       -10.5535
  41   1.0000      -0.385489       -10.4897
  42   1.0000      -0.370957       -10.0943
  43   1.0000      -0.369510       -10.0549
  44   1.0000      -0.363632        -9.8949
  45   1.0000      -0.356487        -9.7005
  46   1.0000      -0.353152        -9.6097
  47   1.0000      -0.341911        -9.3039
  48   1.0000      -0.338928        -9.2227
  49   1.0000      -0.333633        -9.0786
  50   1.0000      -0.329111        -8.9556
  51   1.0000      -0.321784        -8.7562
  52   1.0000      -0.289291        -7.8720
  53   1.0000      -0.268609        -7.3092
  54   1.0000      -0.203205        -5.5295
  55   0.0000      -0.007253        -0.1974
  56   0.0000      -0.003974        -0.1081
  57   0.0000       0.006672         0.1816
  58   0.0000       0.009983         0.2717
  59   0.0000       0.012396         0.3373

                 SPIN DOWN ORBITALS
  NO   OCC          E(Eh)            E(eV)
   0   1.0000     -19.180489      -521.9276
   1   1.0000     -19.128991      -520.5263
   2   1.0000     -19.120696      -520.3006
   3   1.0000     -14.400235      -391.8503
   4   1.0000     -10.314027      -280.6590
   5   1.0000     -10.222883      -278.1788
   6   1.0000     -10.221846      -278.1506
   7   1.0000     -10.192216      -277.3443
   8   1.0000     -10.178303      -276.9657
   9   1.0000     -10.173281      -276.8290
  10   1.0000     -10.160563      -276.4830
  11   1.0000     -10.160181      -276.4726
  12   1.0000     -10.158147      -276.4172
  13   1.0000     -10.157589      -276.4020
  14   1.0000      -1.119623       -30.4665
  15   1.0000      -1.092595       -29.7310
  16   1.0000      -1.030927       -28.0529
  17   1.0000      -0.870557       -23.6891
  18   1.0000      -0.821993       -22.3676
  19   1.0000      -0.789934       -21.4952
  20   1.0000      -0.707863       -19.2619
  21   1.0000      -0.689830       -18.7712
  22   1.0000      -0.684008       -18.6128
  23   1.0000      -0.680160       -18.5081
  24   1.0000      -0.658709       -17.9244
  25   1.0000      -0.597917       -16.2701
  26   1.0000      -0.592526       -16.1235
  27   1.0000      -0.521078       -14.1792
  28   1.0000      -0.506346       -13.7784
  29   1.0000      -0.500316       -13.6143
  30   1.0000      -0.489306       -13.3147
  31   1.0000      -0.476910       -12.9774
  32   1.0000      -0.462249       -12.5784
  33   1.0000      -0.450990       -12.2721
  34   1.0000      -0.444505       -12.0956
  35   1.0000      -0.434433       -11.8215
  36   1.0000      -0.425189       -11.5700
  37   1.0000      -0.415588       -11.3087
  38   1.0000      -0.402229       -10.9452
  39   1.0000      -0.400251       -10.8914
  40   1.0000      -0.384549       -10.4641
  41   1.0000      -0.383828       -10.4445
  42   1.0000      -0.367574       -10.0022
  43   1.0000      -0.363419        -9.8891
  44   1.0000      -0.362336        -9.8597
  45   1.0000      -0.352907        -9.6031
  46   1.0000      -0.346516        -9.4292
  47   1.0000      -0.341163        -9.2835
  48   1.0000      -0.332990        -9.0611
  49   1.0000      -0.332090        -9.0366
  50   1.0000      -0.325555        -8.8588
  51   1.0000      -0.311188        -8.4679
  52   1.0000      -0.289129        -7.8676
  53   1.0000      -0.258646        -7.0381
  54   0.0000      -0.065362        -1.7786
  55   0.0000      -0.007213        -0.1963
  56   0.0000      -0.003813        -0.1038
  57   0.0000       0.006896         0.1876
  58   0.0000       0.009996         0.2720

MULLIKEN ATOMIC CHARGES AND SPIN POPULATIONS
--------------------------------------------
   0 O :   -1.148709    0.475640
   1 N :    0.260951    0.510812
   2 C :    2.994926   -0.030065
   3 C :   -1.251977   -0.007612
   4 C :    1.038141    0.000610
   5 C :   -0.711297   -0.007166
   6 C :    2.824292   -0.039290
   7 C :   -1.460192    0.032962
   8 C :   -1.582911    0.013246
   9 C :   -1.452892    0.033895
  10 C :   -1.586214    0.014522
  11 H :    0.346287   -0.001911
  12 H :    0.166215   -0.000075
  13 H :    0.255184    0.006552
  14 H :    0.517383   -0.001927
  15 H :    0.049675    0.002416
  16 H :    0.170528    0.001838
  17 H :    0.202556   -0.002222
  18 H :    0.028259    0.003978
  19 H :    0.155222   -0.004357
  20 H :    0.187513    0.000865
  21 H :    0.140027   -0.000503
  22 H :    0.156267    0.002221
  23 H :    0.219718   -0.002503
  24 H :    0.023548    0.003923
  25 H :    0.163044   -0.004447
  26 H :    0.187633    0.000625
  27 H :    0.127623   -0.000419
  28 C :    0.249830   -0.001531
  29 O :   -1.007789    0.000064
  30 O :   -0.481359   -0.000125
  31 H :    0.218519   -0.000017
Sum of atomic charges         :   -0.0000000

LOEWDIN ATOMIC CHARGES AND SPIN POPULATIONS
-------------------------------------------
   0 O :    0.391969    0.436246
   1 N :   -0.102096    0.405359
   2 C :   -0.429402    0.041302
   3 C :    0.298917    0.002298
   4 C :   -0.033188    0.000257
   5 C :    0.286922    0.002256
   6 C :   -0.429352    0.041226
   7 C :    0.592479    0.019434
   8 C :    0.564653    0.004635
   9 C :    0.591781    0.019425
  10 C :    0.563815    0.004651
  11 H :   -0.110663   -0.000182
  12 H :   -0.111441    0.000880
  13 H :   -0.142502    0.000063
  14 H :   -0.106742   -0.000185
  15 H :   -0.132820    0.000864
  16 H :   -0.151134    0.002005
  17 H :   -0.165410    0.001799
  18 H :   -0.133622    0.005371
  19 H :   -0.172716   -0.000195
  20 H :   -0.141985    0.001065
  21 H :   -0.137380    0.000629
  22 H :   -0.152262    0.002004
  23 H :   -0.164265    0.001797
  24 H :   -0.134247    0.005369
  25 H :   -0.172987   -0.000192
  26 H :   -0.142327    0.001070
  27 H :   -0.138056    0.000631
  28 C :   -0.795623    0.000099
  29 O :    0.461118    0.000016
  30 O :    0.878796    0.000003
  31 H :   -0.430229   -0.000001

  Mayer bond orders larger than 0.100000
B(  0-O ,  1-N ) :   0.4806 B(  0-O ,  2-C ) :  -0.1841 B(  0-O ,  6-C ) :  -0.1700
B(  0-O ,  7-C ) :   0.1145 B(  0-O ,  8-C ) :   0.1002 B(  0-O ,  9-C ) :   0.1107
B(  1-N ,  2-C ) :   0.5146 B(  1-N ,  3-C ) :   0.2331 B(  1-N ,  4-C ) :  -0.1102
B(  1-N ,  5-C ) :   0.2602 B(  1-N ,  6-C ) :   0.3905 B(  1-N ,  8-C ) :   0.1700
B(  1-N , 10-C ) :   0.1877 B(  2-C ,  3-C ) :  -0.1463 B(  2-C ,  5-C ) :  -0.1204
B(  2-C ,  6-C ) :   0.1076 B(  2-C ,  7-C ) :  -0.1748 B(  2-C ,  8-C ) :  -0.5817
B(  2-C , 12-H ) :  -0.1154 B(  2-C , 16-H ) :  -0.1508 B(  2-C , 18-H ) :  -0.1831
B(  2-C , 19-H ) :  -0.1405 B(  2-C , 20-H ) :  -0.2321 B(  2-C , 21-H ) :  -0.1180
B(  3-C ,  4-C ) :   0.8421 B(  3-C ,  5-C ) :   0.2538 B(  3-C , 11-H ) :   0.6651
B(  3-C , 12-H ) :   1.1493 B(  3-C , 28-C ) :   0.2692 B(  3-C , 29-O ) :   0.1680
B(  3-C , 30-O ) :   0.1222 B(  4-C ,  5-C ) :   1.2325 B(  4-C , 13-H ) :   0.8741
B(  4-C , 28-C ) :  -0.3686 B(  4-C , 29-O ) :  -0.1762 B(  5-C , 14-H ) :   0.5906
B(  5-C , 15-H ) :   1.1794 B(  5-C , 28-C ) :  -0.2854 B(  5-C , 30-O ) :  -0.1884
B(  6-C ,  9-C ) :  -0.1753 B(  6-C , 10-C ) :  -0.5690 B(  6-C , 15-H ) :  -0.1234
B(  6-C , 22-H ) :  -0.1686 B(  6-C , 24-H ) :  -0.1953 B(  6-C , 25-H ) :  -0.1395
B(  6-C , 26-H ) :  -0.2344 B(  6-C , 27-H ) :  -0.1143 B(  7-C ,  8-C ) :   0.2709
B(  7-C , 16-H ) :   1.1024 B(  7-C , 17-H ) :   1.0682 B(  7-C , 18-H ) :   1.3116
B(  8-C , 19-H ) :   1.1331 B(  8-C , 20-H ) :   1.1456 B(  8-C , 21-H ) :   1.1420
B(  9-C , 10-C ) :   0.2669 B(  9-C , 22-H ) :   1.1202 B(  9-C , 23-H ) :   1.0577
B(  9-C , 24-H ) :   1.3121 B( 10-C , 25-H ) :   1.1204 B( 10-C , 26-H ) :   1.1436
B( 10-C , 27-H ) :   1.1558 B( 11-H , 29-O ) :   0.1144 B( 13-H , 28-C ) :  -0.2226
B( 28-C , 29-O ) :   0.8937 B( 28-C , 30-O ) :   0.9620 B( 29-O , 30-O ) :   0.1213
B( 30-O , 31-H ) :   0.9306

Dispersion correction           -0.062378624
FINAL SINGLE POINT ENERGY      -672.217570211740

DIPOLE MOMENT
-------------

Method             : SCF
Type of density    : Electron Density
Multiplicity       :   2
Irrep              :   0
Energy             :  -672.1551915874686074 Eh
Relativity type    :
Basis              : AO
                                X                 Y                 Z
Electronic contribution:      4.817154680      -8.552913656      -2.447876425
Nuclear contribution   :     -4.499370341       7.227471368       2.551456631
                        -----------------------------------------
Total Dipole Moment    :      0.317784339      -1.325442287       0.103580206
                        -----------------------------------------
Magnitude (a.u.)       :      1.366935625
Magnitude (Debye)      :      3.474474237

Rotational constants in cm-1:             0.032861             0.018000             0.014315
Rotational constants in MHz :           985.137825           539.637510           429.167318

                             ****ORCA TERMINATED NORMALLY****
TOTAL RUN TIME: 0 days 0 hours 9 minutes 33 seconds 223 msec
