                         Program Version 6.0.0  -   RELEASE  -
|  1> !r2SCANh aug-cc-pVTZ d3 TightSCF SlowConv RIJCOSX defgrid2
|  2>
|  3> %pal
|  4> nprocs 4
|  5> end
|  6>
|  7> %scf
|  8> MaxIter 1500
|  9> end
| 10>
| 11> %maxcore 3000
| 12>
| 13> !CPCM
| 14> %cpcm smd true
| 15> SMDsolvent "MeCN"
| 16> surfacetype gepol_ses
| 17> rsolv 2.19
| 18> end
| 19>
| 20> * xyz 1 2
| 21> C           2.10074069713964     -0.03623551022709      0.33749659871253
| 22> C           2.28528308407684     -1.00752299995307     -0.66845525084634
| 23> C           3.55854065372565     -1.40796132368585     -1.00587360020280
| 24> C           4.68249131779385     -0.86605497847815     -0.34228468182816
| 25> C           4.49410486888580      0.09282810810827      0.67448234828818
| 26> C           3.21443563230482      0.50407669582157      1.00485264191955
| 27> H           3.07723883642763      1.26509156223799      1.77871020660964
| 28> H           5.34504061581579      0.52911655526770      1.19977321493419
| 29> O           5.85957111079757     -1.32009234548199     -0.73263129283529
| 30> C           7.04850127917866     -0.86024283407437     -0.12168488196846
| 31> H           7.05512576176798     -1.09734211644688      0.95677335906268
| 32> H           7.17453578603241      0.22645663792845     -0.27205541020094
| 33> H           7.86948886250749     -1.39474999506796     -0.61807937295301
| 34> H           3.72936926674930     -2.16465573433241     -1.77503931686740
| 35> H           1.42319555532723     -1.45115446559524     -1.17357438144306
| 36> S           0.53310799676805      0.50835431053803      0.87944925726859
| 37> S          -0.53256657645917      0.51157250736075     -0.87298747821769
| 38> C          -2.10050433131834     -0.03456082645027     -0.33376593608310
| 39> C          -2.28614846748860     -1.00654106417423      0.67133142906854
| 40> C          -3.55972901842260     -1.40767887923690      1.00664018727382
| 41> C          -4.68294557147944     -0.86577074838656      0.34176687797768
| 42> C          -4.49345078730343      0.09376398773271     -0.67420576981618
| 43> C          -3.21349104560759      0.50568127921148     -1.00247721129044
| 44> H          -3.07548115689053      1.26718515114297     -1.77571342523042
| 45> H          -5.34379775111145      0.53000288222862     -1.20048622064007
| 46> O          -5.86039219693820     -1.32045276361291      0.73014290561810
| 47> C          -7.04863669150853     -0.86088719818355      0.11760799023957
| 48> H          -7.05349716792618     -1.09749864586999     -0.96096207362486
| 49> H          -7.87010373607049     -1.39602142441654      0.61252372140508
| 50> H          -7.17540081825230      0.22567978049243      0.26830217206131
| 51> H          -3.73137732634319     -2.16495328714636      1.77505264858787
| 52> H          -1.42462428217865     -1.45015721725065      1.17741544502090
| 53> *
| 54>
| 55>                          ****END OF INPUT****

CARTESIAN COORDINATES (ANGSTROEM)
---------------------------------
  C      2.100741   -0.036236    0.337497
  C      2.285283   -1.007523   -0.668455
  C      3.558541   -1.407961   -1.005874
  C      4.682491   -0.866055   -0.342285
  C      4.494105    0.092828    0.674482
  C      3.214436    0.504077    1.004853
  H      3.077239    1.265092    1.778710
  H      5.345041    0.529117    1.199773
  O      5.859571   -1.320092   -0.732631
  C      7.048501   -0.860243   -0.121685
  H      7.055126   -1.097342    0.956773
  H      7.174536    0.226457   -0.272055
  H      7.869489   -1.394750   -0.618079
  H      3.729369   -2.164656   -1.775039
  H      1.423196   -1.451154   -1.173574
  S      0.533108    0.508354    0.879449
  S     -0.532567    0.511573   -0.872987
  C     -2.100504   -0.034561   -0.333766
  C     -2.286148   -1.006541    0.671331
  C     -3.559729   -1.407679    1.006640
  C     -4.682946   -0.865771    0.341767
  C     -4.493451    0.093764   -0.674206
  C     -3.213491    0.505681   -1.002477
  H     -3.075481    1.267185   -1.775713
  H     -5.343798    0.530003   -1.200486
  O     -5.860392   -1.320453    0.730143
  C     -7.048637   -0.860887    0.117608
  H     -7.053497   -1.097499   -0.960962
  H     -7.870104   -1.396021    0.612524
  H     -7.175401    0.225680    0.268302
  H     -3.731377   -2.164953    1.775053
  H     -1.424624   -1.450157    1.177415

 Total Charge           Charge          ....    1
 Multiplicity           Mult            ....    2
 Number of Electrons    NEL             ....  145
 Basis Dimension        Dim             .... 1158

ORBITAL ENERGIES
----------------
                 SPIN UP ORBITALS
  NO   OCC          E(Eh)            E(eV)
   0   1.0000     -88.992017     -2421.5959
   1   1.0000     -88.991931     -2421.5935
   2   1.0000     -19.183254      -522.0029
   3   1.0000     -19.183159      -522.0003
   4   1.0000     -10.256592      -279.0961
   5   1.0000     -10.256509      -279.0938
   6   1.0000     -10.231807      -278.4216
   7   1.0000     -10.231705      -278.4189
   8   1.0000     -10.210898      -277.8527
   9   1.0000     -10.210868      -277.8518
  10   1.0000     -10.199031      -277.5297
  11   1.0000     -10.198962      -277.5279
  12   1.0000     -10.197655      -277.4923
  13   1.0000     -10.197605      -277.4909
  14   1.0000     -10.185916      -277.1729
  15   1.0000     -10.185857      -277.1713
  16   1.0000     -10.184022      -277.1213
  17   1.0000     -10.183946      -277.1192
  18   1.0000      -8.053207      -219.1389
  19   1.0000      -8.053103      -219.1361
  20   1.0000      -5.974954      -162.5868
  21   1.0000      -5.974676      -162.5792
  22   1.0000      -5.970249      -162.4587
  23   1.0000      -5.970166      -162.4565
  24   1.0000      -5.969669      -162.4430
  25   1.0000      -5.969576      -162.4404
  26   1.0000      -1.113727       -30.3060
  27   1.0000      -1.113641       -30.3037
  28   1.0000      -0.912300       -24.8249
  29   1.0000      -0.894950       -24.3528
  30   1.0000      -0.856723       -23.3126
  31   1.0000      -0.809116       -22.0172
  32   1.0000      -0.783324       -21.3153
  33   1.0000      -0.780279       -21.2325
  34   1.0000      -0.765676       -20.8351
  35   1.0000      -0.737694       -20.0737
  36   1.0000      -0.705668       -19.2022
  37   1.0000      -0.672577       -18.3018
  38   1.0000      -0.637819       -17.3559
  39   1.0000      -0.637292       -17.3416
  40   1.0000      -0.607209       -16.5230
  41   1.0000      -0.591686       -16.1006
  42   1.0000      -0.549515       -14.9531
  43   1.0000      -0.548174       -14.9166
  44   1.0000      -0.518424       -14.1070
  45   1.0000      -0.507222       -13.8022
  46   1.0000      -0.495901       -13.4942
  47   1.0000      -0.486478       -13.2377
  48   1.0000      -0.482037       -13.1169
  49   1.0000      -0.481845       -13.1117
  50   1.0000      -0.459010       -12.4903
  51   1.0000      -0.458540       -12.4775
  52   1.0000      -0.439411       -11.9570
  53   1.0000      -0.438909       -11.9433
  54   1.0000      -0.431075       -11.7301
  55   1.0000      -0.422742       -11.5034
  56   1.0000      -0.420421       -11.4402
  57   1.0000      -0.410574       -11.1723
  58   1.0000      -0.394915       -10.7462
  59   1.0000      -0.391089       -10.6421
  60   1.0000      -0.377749       -10.2791
  61   1.0000      -0.372858       -10.1460
  62   1.0000      -0.364949        -9.9308
  63   1.0000      -0.362279        -9.8581
  64   1.0000      -0.355804        -9.6819
  65   1.0000      -0.334364        -9.0985
  66   1.0000      -0.334086        -9.0910
  67   1.0000      -0.328669        -8.9436
  68   1.0000      -0.291413        -7.9297
  69   1.0000      -0.284163        -7.7325
  70   1.0000      -0.282860        -7.6970
  71   1.0000      -0.243611        -6.6290
  72   1.0000      -0.227137        -6.1807
  73   0.0000      -0.095548        -2.6000
  74   0.0000      -0.057248        -1.5578
  75   0.0000      -0.051148        -1.3918
  76   0.0000      -0.045775        -1.2456
  77   0.0000      -0.035659        -0.9703

                 SPIN DOWN ORBITALS
  NO   OCC          E(Eh)            E(eV)
   0   1.0000     -88.989940     -2421.5394
   1   1.0000     -88.989860     -2421.5372
   2   1.0000     -19.181310      -521.9500
   3   1.0000     -19.181229      -521.9478
   4   1.0000     -10.255351      -279.0623
   5   1.0000     -10.255276      -279.0602
   6   1.0000     -10.230640      -278.3899
   7   1.0000     -10.230543      -278.3872
   8   1.0000     -10.210970      -277.8546
   9   1.0000     -10.210939      -277.8538
  10   1.0000     -10.198476      -277.5146
  11   1.0000     -10.198412      -277.5129
  12   1.0000     -10.197102      -277.4773
  13   1.0000     -10.197052      -277.4759
  14   1.0000     -10.185703      -277.1671
  15   1.0000     -10.185641      -277.1654
  16   1.0000     -10.184092      -277.1232
  17   1.0000     -10.184019      -277.1212
  18   1.0000      -8.051741      -219.0990
  19   1.0000      -8.051639      -219.0962
  20   1.0000      -5.973712      -162.5530
  21   1.0000      -5.973432      -162.5454
  22   1.0000      -5.969127      -162.4282
  23   1.0000      -5.969051      -162.4261
  24   1.0000      -5.964058      -162.2903
  25   1.0000      -5.963977      -162.2881
  26   1.0000      -1.110682       -30.2232
  27   1.0000      -1.110616       -30.2214
  28   1.0000      -0.907644       -24.6983
  29   1.0000      -0.891985       -24.2722
  30   1.0000      -0.851997       -23.1840
  31   1.0000      -0.805023       -21.9058
  32   1.0000      -0.782179       -21.2842
  33   1.0000      -0.779157       -21.2020
  34   1.0000      -0.762293       -20.7430
  35   1.0000      -0.735116       -20.0035
  36   1.0000      -0.703505       -19.1433
  37   1.0000      -0.666135       -18.1265
  38   1.0000      -0.636182       -17.3114
  39   1.0000      -0.635577       -17.2949
  40   1.0000      -0.605473       -16.4758
  41   1.0000      -0.588361       -16.0101
  42   1.0000      -0.548805       -14.9338
  43   1.0000      -0.546920       -14.8824
  44   1.0000      -0.517254       -14.0752
  45   1.0000      -0.506378       -13.7793
  46   1.0000      -0.494622       -13.4593
  47   1.0000      -0.481583       -13.1046
  48   1.0000      -0.476689       -12.9714
  49   1.0000      -0.476568       -12.9681
  50   1.0000      -0.457643       -12.4531
  51   1.0000      -0.457171       -12.4403
  52   1.0000      -0.438955       -11.9446
  53   1.0000      -0.438491       -11.9320
  54   1.0000      -0.428903       -11.6710
  55   1.0000      -0.422074       -11.4852
  56   1.0000      -0.415340       -11.3020
  57   1.0000      -0.405526       -11.0349
  58   1.0000      -0.390889       -10.6366
  59   1.0000      -0.388135       -10.5617
  60   1.0000      -0.373347       -10.1593
  61   1.0000      -0.371888       -10.1196
  62   1.0000      -0.357847        -9.7375
  63   1.0000      -0.354047        -9.6341
  64   1.0000      -0.348332        -9.4786
  65   1.0000      -0.333193        -9.0667
  66   1.0000      -0.332645        -9.0517
  67   1.0000      -0.316970        -8.6252
  68   1.0000      -0.281888        -7.6706
  69   1.0000      -0.281572        -7.6620
  70   1.0000      -0.273240        -7.4352
  71   1.0000      -0.229757        -6.2520
  72   0.0000      -0.189032        -5.1438
  73   0.0000      -0.088327        -2.4035
  74   0.0000      -0.051842        -1.4107
  75   0.0000      -0.045478        -1.2375
  76   0.0000      -0.037694        -1.0257

MULLIKEN ATOMIC CHARGES AND SPIN POPULATIONS
--------------------------------------------
   0 C :    1.283679    0.005633
   1 C :   -0.470072    0.020793
   2 C :   -1.094025   -0.007066
   3 C :    1.134061    0.080311
   4 C :   -0.162396    0.007004
   5 C :   -1.099198    0.027551
   6 H :    0.347737    0.005767
   7 H :    0.365088    0.003068
   8 O :   -0.640480    0.057009
   9 C :   -0.688888   -0.006257
  10 H :    0.297710    0.003377
  11 H :    0.295157    0.002641
  12 H :    0.237490   -0.000220
  13 H :    0.474945    0.000403
  14 H :    0.425181    0.003169
  15 S :   -0.207355    0.295665
  16 S :   -0.205608    0.296609
  17 C :    1.284770    0.005904
  18 C :   -0.454867    0.020517
  19 C :   -1.105106   -0.006916
  20 C :    1.134481    0.080867
  21 C :   -0.160863    0.006739
  22 C :   -1.100644    0.027885
  23 H :    0.348387    0.005787
  24 H :    0.362679    0.003105
  25 O :   -0.639321    0.057383
  26 C :   -0.688404   -0.006310
  27 H :    0.297893    0.003416
  28 H :    0.237931   -0.000226
  29 H :    0.295414    0.002657
  30 H :    0.465477    0.000425
  31 H :    0.429148    0.003310
Sum of atomic charges         :    1.0000000

LOEWDIN ATOMIC CHARGES AND SPIN POPULATIONS
-------------------------------------------
   0 C :   -0.585351    0.072260
   1 C :    0.114154    0.024972
   2 C :    0.228932    0.013275
   3 C :   -0.381331    0.045719
   4 C :    0.233707    0.023504
   5 C :    0.125563    0.028646
   6 H :   -0.171434    0.004696
   7 H :   -0.172857    0.001943
   8 O :    0.614014    0.049416
   9 C :    0.375934    0.004960
  10 H :   -0.153727    0.001437
  11 H :   -0.153638    0.001450
  12 H :   -0.163374   -0.000182
  13 H :   -0.156517    0.000037
  14 H :   -0.205197    0.004011
  15 S :    0.950638    0.222852
  16 S :    0.950875    0.223425
  17 C :   -0.585156    0.072528
  18 C :    0.114241    0.025076
  19 C :    0.229035    0.013433
  20 C :   -0.381226    0.046008
  21 C :    0.233786    0.023548
  22 C :    0.125627    0.028803
  23 H :   -0.171387    0.004710
  24 H :   -0.172823    0.001930
  25 O :    0.614095    0.049736
  26 C :    0.376042    0.004991
  27 H :   -0.153700    0.001447
  28 H :   -0.163355   -0.000183
  29 H :   -0.153618    0.001460
  30 H :   -0.156480    0.000052
  31 H :   -0.205472    0.004038

  Mayer bond orders larger than 0.100000
B(  0-C ,  1-C ) :   0.5818 B(  0-C ,  2-C ) :  -0.1559 B(  0-C ,  5-C ) :   0.5427
B(  0-C , 15-S ) :   0.3341 B(  1-C ,  2-C ) :   0.9722 B(  1-C ,  3-C ) :  -0.2050
B(  1-C ,  4-C ) :  -0.1601 B(  1-C ,  8-O ) :   0.1200 B(  1-C , 14-H ) :   0.7009
B(  1-C , 16-S ) :   0.1462 B(  1-C , 18-C ) :   0.1092 B(  2-C ,  3-C ) :   0.7077
B(  2-C ,  4-C ) :   0.1098 B(  2-C ,  8-O ) :   0.2873 B(  2-C , 13-H ) :   0.5092
B(  2-C , 16-S ) :   0.1146 B(  3-C ,  4-C ) :   0.9418 B(  3-C ,  5-C ) :  -0.1089
B(  3-C ,  8-O ) :   0.3272 B(  4-C ,  5-C ) :   0.9390 B(  4-C ,  7-H ) :   0.6554
B(  4-C ,  8-O ) :  -0.2599 B(  4-C ,  9-C ) :  -0.1499 B(  5-C ,  6-H ) :   0.7049
B(  5-C , 15-S ) :   0.1470 B(  8-O ,  9-C ) :   0.9853 B(  9-C , 10-H ) :   0.8909
B(  9-C , 11-H ) :   0.8927 B(  9-C , 12-H ) :   0.9918 B( 15-S , 16-S ) :   0.9969
B( 15-S , 18-C ) :   0.1439 B( 15-S , 19-C ) :   0.1158 B( 16-S , 17-C ) :   0.3306
B( 16-S , 22-C ) :   0.1477 B( 17-C , 18-C ) :   0.5845 B( 17-C , 19-C ) :  -0.1614
B( 17-C , 22-C ) :   0.5444 B( 18-C , 19-C ) :   0.9427 B( 18-C , 20-C ) :  -0.2045
B( 18-C , 21-C ) :  -0.1579 B( 18-C , 25-O ) :   0.1216 B( 18-C , 31-H ) :   0.6942
B( 19-C , 20-C ) :   0.7093 B( 19-C , 21-C ) :   0.1135 B( 19-C , 25-O ) :   0.2877
B( 19-C , 30-H ) :   0.5253 B( 20-C , 21-C ) :   0.9400 B( 20-C , 22-C ) :  -0.1067
B( 20-C , 25-O ) :   0.3257 B( 21-C , 22-C ) :   0.9429 B( 21-C , 24-H ) :   0.6604
B( 21-C , 25-O ) :  -0.2617 B( 21-C , 26-C ) :  -0.1512 B( 22-C , 23-H ) :   0.7028
B( 25-O , 26-C ) :   0.9838 B( 26-C , 27-H ) :   0.8908 B( 26-C , 28-H ) :   0.9911
B( 26-C , 29-H ) :   0.8925

Dispersion correction           -0.013502374
FINAL SINGLE POINT ENERGY     -1488.377312960542

DIPOLE MOMENT
-------------

Method             : SCF
Type of density    : Electron Density
Multiplicity       :   2
Irrep              :   0
Energy             : -1488.3638105863533383 Eh
Relativity type    :
Basis              : AO
                                X                 Y                 Z
Electronic contribution:     -0.007682315       3.269299294       0.016130034
Nuclear contribution   :     -0.000025572      -2.851825111      -0.017728862
                        -----------------------------------------
Total Dipole Moment    :     -0.007707887       0.417474183      -0.001598827
                        -----------------------------------------
Magnitude (a.u.)       :      0.417548394
Magnitude (Debye)      :      1.061323673

Rotational constants in cm-1:             0.050702             0.003581             0.003572
Rotational constants in MHz :          1519.993315           107.353371           107.097515

                             ****ORCA TERMINATED NORMALLY****
TOTAL RUN TIME: 0 days 0 hours 20 minutes 9 seconds 627 msec
