                         Program Version 6.0.0  -   RELEASE  -
|  1> !r2SCAN aug-cc-pVTZ d3 TightSCF SlowConv RIJCOSX defgrid2
|  2>
|  3> %pal
|  4> nprocs 4
|  5> end
|  6>
|  7> %scf
|  8> MaxIter 1500
|  9> end
| 10>
| 11> %maxcore 3000
| 12>
| 13> !CPCM
| 14> %cpcm smd true
| 15> SMDsolvent "MeCN"
| 16> surfacetype gepol_ses
| 17> rsolv 2.19
| 18> end
| 19>
| 20> * xyz 0 1
| 21> C           2.43031351008729     -0.70749139029856      0.00001403239272
| 22> C           2.43032444825569      0.70745716976960      0.00001780057511
| 23> C           1.24225650957686      1.40066986227340      0.00001298600543
| 24> C           0.00000747832604      0.71479447718917      0.00000542687051
| 25> C          -1.24223111805275      1.40068893561610      0.00000324875952
| 26> C          -2.43030983452578      0.70749421287076     -0.00000358520312
| 27> C          -2.43032103578901     -0.70745426001962     -0.00000960120256
| 28> C          -1.24225352108494     -1.40066808823521     -0.00000641420954
| 29> C          -0.00000405709778     -0.71479302978643      0.00000150500237
| 30> C           1.24223524877496     -1.40068686163162      0.00000460886950
| 31> H           1.23824372924118     -2.49527550154318      0.00000243863973
| 32> H          -1.23827753101703     -2.49525698617010     -0.00000852848414
| 33> H          -3.38175156931066     -1.24754932619836     -0.00001429910497
| 34> H          -3.38173131512848      1.24760412689582     -0.00000496639229
| 35> H          -1.23823830440863      2.49527781567030      0.00000665226192
| 36> H           1.23827983240145      2.49525951167016      0.00001366019695
| 37> H           3.38175416757919      1.24755290950869      0.00002330946105
| 38> H           3.38173466217241     -1.24760147758094      0.00001812556182
| 39> *
| 40>
| 41>                          ****END OF INPUT****

CARTESIAN COORDINATES (ANGSTROEM)
---------------------------------
  C      2.430314   -0.707491    0.000014
  C      2.430324    0.707457    0.000018
  C      1.242257    1.400670    0.000013
  C      0.000007    0.714794    0.000005
  C     -1.242231    1.400689    0.000003
  C     -2.430310    0.707494   -0.000004
  C     -2.430321   -0.707454   -0.000010
  C     -1.242254   -1.400668   -0.000006
  C     -0.000004   -0.714793    0.000002
  C      1.242235   -1.400687    0.000005
  H      1.238244   -2.495276    0.000002
  H     -1.238278   -2.495257   -0.000009
  H     -3.381752   -1.247549   -0.000014
  H     -3.381731    1.247604   -0.000005
  H     -1.238238    2.495278    0.000007
  H      1.238280    2.495260    0.000014
  H      3.381754    1.247553    0.000023
  H      3.381735   -1.247601    0.000018

 Total Charge           Charge          ....    0
 Multiplicity           Mult            ....    1
 Number of Electrons    NEL             ....   68
 Basis Dimension        Dim             ....  644

ORBITAL ENERGIES
----------------

  NO   OCC          E(Eh)            E(eV)
   0   2.0000     -10.052969      -273.5552
   1   2.0000     -10.052639      -273.5462
   2   2.0000     -10.042351      -273.2663
   3   2.0000     -10.042345      -273.2661
   4   2.0000     -10.042261      -273.2638
   5   2.0000     -10.042259      -273.2637
   6   2.0000     -10.041804      -273.2514
   7   2.0000     -10.041802      -273.2513
   8   2.0000     -10.041538      -273.2441
   9   2.0000     -10.041531      -273.2440
  10   2.0000      -0.843583       -22.9551
  11   2.0000      -0.789606       -21.4863
  12   2.0000      -0.742074       -20.1929
  13   2.0000      -0.710077       -19.3222
  14   2.0000      -0.686940       -18.6926
  15   2.0000      -0.593456       -16.1488
  16   2.0000      -0.579233       -15.7617
  17   2.0000      -0.562887       -15.3169
  18   2.0000      -0.480256       -13.0684
  19   2.0000      -0.475590       -12.9415
  20   2.0000      -0.460379       -12.5275
  21   2.0000      -0.411575       -11.1995
  22   2.0000      -0.408725       -11.1220
  23   2.0000      -0.384227       -10.4554
  24   2.0000      -0.382051       -10.3961
  25   2.0000      -0.373223       -10.1559
  26   2.0000      -0.364528        -9.9193
  27   2.0000      -0.334217        -9.0945
  28   2.0000      -0.311936        -8.4882
  29   2.0000      -0.304849        -8.2954
  30   2.0000      -0.296702        -8.0737
  31   2.0000      -0.272355        -7.4111
  32   2.0000      -0.235831        -6.4173
  33   2.0000      -0.207305        -5.6411
  34   0.0000      -0.071999        -1.9592
  35   0.0000      -0.043018        -1.1706
  36   0.0000      -0.012305        -0.3348
  37   0.0000       0.007574         0.2061
  38   0.0000       0.021141         0.5753

MULLIKEN ATOMIC CHARGES
-----------------------
   0 C :   -0.420876
   1 C :   -0.420868
   2 C :   -1.180763
   3 C :    1.997214
   4 C :   -1.180760
   5 C :   -0.420884
   6 C :   -0.420867
   7 C :   -1.180763
   8 C :    1.997236
   9 C :   -1.180751
  10 H :   -0.014805
  11 H :   -0.014779
  12 H :    0.617820
  13 H :    0.617811
  14 H :   -0.014771
  15 H :   -0.014819
  16 H :    0.617815
  17 H :    0.617810
Sum of atomic charges:    0.0000000

LOEWDIN ATOMIC CHARGES
----------------------
   0 C :    0.193691
   1 C :    0.193691
   2 C :    0.210762
   3 C :   -0.135869
   4 C :    0.210762
   5 C :    0.193691
   6 C :    0.193691
   7 C :    0.210762
   8 C :   -0.135868
   9 C :    0.210763
  10 H :   -0.164887
  11 H :   -0.164887
  12 H :   -0.171632
  13 H :   -0.171632
  14 H :   -0.164887
  15 H :   -0.164886
  16 H :   -0.171632
  17 H :   -0.171632

  Mayer bond orders larger than 0.100000
B(  0-C ,  1-C ) :   1.0260 B(  0-C ,  3-C ) :  -0.3446 B(  0-C ,  9-C ) :   1.1296
B(  0-C , 17-H ) :   0.2841 B(  1-C ,  2-C ) :   1.1296 B(  1-C ,  8-C ) :  -0.3446
B(  1-C , 16-H ) :   0.2841 B(  2-C ,  3-C ) :  -0.4206 B(  2-C ,  4-C ) :   0.5846
B(  2-C ,  8-C ) :  -0.3373 B(  2-C , 15-H ) :   1.4695 B(  2-C , 16-H ) :  -0.1806
B(  3-C ,  4-C ) :  -0.4206 B(  3-C ,  6-C ) :  -0.3446 B(  3-C ,  7-C ) :  -0.3372
B(  3-C ,  8-C ) :   1.4078 B(  3-C ,  9-C ) :  -0.3372 B(  3-C , 13-H ) :   0.1035
B(  3-C , 14-H ) :  -0.1622 B(  3-C , 15-H ) :  -0.1622 B(  3-C , 16-H ) :   0.1035
B(  4-C ,  5-C ) :   1.1296 B(  4-C ,  8-C ) :  -0.3372 B(  4-C , 13-H ) :  -0.1806
B(  4-C , 14-H ) :   1.4694 B(  5-C ,  6-C ) :   1.0260 B(  5-C ,  8-C ) :  -0.3446
B(  5-C , 13-H ) :   0.2841 B(  6-C ,  7-C ) :   1.1296 B(  6-C , 12-H ) :   0.2841
B(  7-C ,  8-C ) :  -0.4206 B(  7-C ,  9-C ) :   0.5846 B(  7-C , 11-H ) :   1.4694
B(  7-C , 12-H ) :  -0.1806 B(  8-C ,  9-C ) :  -0.4206 B(  8-C , 10-H ) :  -0.1622
B(  8-C , 11-H ) :  -0.1622 B(  8-C , 12-H ) :   0.1035 B(  8-C , 17-H ) :   0.1035
B(  9-C , 10-H ) :   1.4695 B(  9-C , 17-H ) :  -0.1806

Dispersion correction           -0.006298504
FINAL SINGLE POINT ENERGY      -385.817259376081

DIPOLE MOMENT
-------------

Method             : SCF
Type of density    : Electron Density
Multiplicity       :   1
Irrep              :   0
Energy             :  -385.8109608723614770 Eh
Relativity type    :
Basis              : AO
                                X                 Y                 Z
Electronic contribution:      0.000000427      -0.000003336      -0.000002719
Nuclear contribution   :     -0.000000379       0.000001978       0.000003856
                        -----------------------------------------
Total Dipole Moment    :      0.000000048      -0.000001357       0.000001137
                        -----------------------------------------
Magnitude (a.u.)       :      0.000001771
Magnitude (Debye)      :      0.000004503

Rotational constants in cm-1:             0.104086             0.041096             0.029463
Rotational constants in MHz :          3120.428737          1232.025642           883.282829

                             ****ORCA TERMINATED NORMALLY****
TOTAL RUN TIME: 0 days 0 hours 2 minutes 17 seconds 108 msec
