                         Program Version 6.0.0  -   RELEASE  -
|  1> !PBE0 def2-SV(p) Opt Freq d3 TightSCF SlowConv RIJCOSX defgrid2
|  2>
|  3> %pal
|  4> nprocs 4
|  5> end
|  6>
|  7> %scf
|  8> MaxIter 1500
|  9> end
| 10>
| 11> %maxcore 3000
| 12>
| 13>
| 14>
| 15> * xyz 0 1
| 16> C     4.1021447    1.2006113    0.0005205
| 17> C     4.7961465    0.0002189    0.0000752
| 18> C     4.1024135   -1.2003290   -0.0004531
| 19> C     2.7208966   -1.2064217   -0.0005481
| 20> C     2.0164526   -0.0000977   -0.0001385
| 21> C     2.7206306    1.2063833    0.0004243
| 22> H     2.1745859    2.1386686    0.0008192
| 23> C     0.6041477   -0.0001785   -0.0000493
| 24> C    -0.6041466   -0.0002840    0.0001038
| 25> C    -2.0164517   -0.0001301   -0.0000527
| 26> C    -2.7209029   -1.2064516    0.0004717
| 27> C    -4.1024155   -1.2003583    0.0005276
| 28> C    -4.7961463    0.0001933    0.0000598
| 29> C    -4.1021421    1.2005817   -0.0004567
| 30> C    -2.7206234    1.2063531   -0.0005121
| 31> H    -2.1745861    2.1386435   -0.0008798
| 32> H    -4.6422808    2.1362566   -0.0007888
| 33> H    -5.8761281    0.0003125    0.0001173
| 34> H    -4.6427789   -2.1359032    0.0009616
| 35> H    -2.1750711   -2.1388618    0.0008735
| 36> H     2.1750708   -2.1388360   -0.0009152
| 37> H     4.6427759   -2.1358752   -0.0008250
| 38> H     5.8761283    0.0003406    0.0001010
| 39> H     4.6422861    2.1362837    0.0009091
| 40> *
| 41>
| 42>                          ****END OF INPUT****
 Total Charge           Charge          ....    0
 Multiplicity           Mult            ....    1
 Number of Electrons    NEL             ....   94
Dispersion correction           -0.024209832
FINAL SINGLE POINT ENERGY      -538.430188929942
Dispersion correction             ... done (  0.1 sec)
Dispersion correction           -0.024051064
FINAL SINGLE POINT ENERGY      -538.432964081675
Dispersion correction             ... done (  0.1 sec)
Dispersion correction           -0.024031933
FINAL SINGLE POINT ENERGY      -538.433000135070
Dispersion correction             ... done (  0.1 sec)
                    ***********************HURRAY********************

CARTESIAN COORDINATES (ANGSTROEM)
---------------------------------
  C      4.139670    1.207350    0.000181
  C      4.839859    0.000129   -0.000111
  C      4.139773   -1.207151   -0.000305
  C      2.748970   -1.211661   -0.000209
  C      2.033717    0.000005    0.000079
  C      2.748866    1.211736    0.000273
  H      2.197006    2.155076    0.000501
  C      0.609266   -0.000039    0.000171
  C     -0.609267   -0.000119    0.000327
  C     -2.033717   -0.000051    0.000195
  C     -2.748984   -1.211710    0.000368
  C     -4.139786   -1.207187    0.000210
  C     -4.839859    0.000102   -0.000117
  C     -4.139654    1.207315   -0.000285
  C     -2.748851    1.211686   -0.000126
  H     -2.196982    2.155022   -0.000257
  H     -4.684543    2.156032   -0.000542
  H     -5.933833    0.000160   -0.000239
  H     -4.684783   -2.155843    0.000345
  H     -2.197216   -2.155104    0.000625
  H      2.197194   -2.155051   -0.000361
  H      4.684757   -2.155813   -0.000533
  H      5.933834    0.000174   -0.000183
  H      4.684570    2.156061    0.000338

 Multiplicity           Mult            ....    1
 Number of Electrons    NEL             ....   94
 Basis Dimension        Dim             ....  216

ORBITAL ENERGIES
----------------

  NO   OCC          E(Eh)            E(eV)
   0   2.0000     -10.266925      -279.3772
   1   2.0000     -10.266723      -279.3717
   2   2.0000     -10.245587      -278.7966
   3   2.0000     -10.245586      -278.7966
   4   2.0000     -10.245561      -278.7959
   5   2.0000     -10.245560      -278.7958
   6   2.0000     -10.244082      -278.7556
   7   2.0000     -10.244081      -278.7556
   8   2.0000     -10.243393      -278.7369
   9   2.0000     -10.243393      -278.7369
  10   2.0000     -10.243270      -278.7335
  11   2.0000     -10.243269      -278.7335
  12   2.0000     -10.240645      -278.6621
  13   2.0000     -10.238482      -278.6033
  14   2.0000      -0.888612       -24.1804
  15   2.0000      -0.885881       -24.1060
  16   2.0000      -0.810437       -22.0531
  17   2.0000      -0.787635       -21.4326
  18   2.0000      -0.769948       -20.9513
  19   2.0000      -0.769793       -20.9471
  20   2.0000      -0.732228       -19.9249
  21   2.0000      -0.653473       -17.7819
  22   2.0000      -0.627903       -17.0861
  23   2.0000      -0.626492       -17.0477
  24   2.0000      -0.625090       -17.0096
  25   2.0000      -0.565639       -15.3918
  26   2.0000      -0.550415       -14.9776
  27   2.0000      -0.502275       -13.6676
  28   2.0000      -0.489995       -13.3335
  29   2.0000      -0.482260       -13.1230
  30   2.0000      -0.477698       -12.9988
  31   2.0000      -0.455700       -12.4002
  32   2.0000      -0.450371       -12.2552
  33   2.0000      -0.442487       -12.0407
  34   2.0000      -0.442223       -12.0335
  35   2.0000      -0.407497       -11.0886
  36   2.0000      -0.396226       -10.7819
  37   2.0000      -0.378848       -10.3090
  38   2.0000      -0.374773       -10.1981
  39   2.0000      -0.368805       -10.0357
  40   2.0000      -0.365248        -9.9389
  41   2.0000      -0.336582        -9.1588
  42   2.0000      -0.289244        -7.8707
  43   2.0000      -0.285878        -7.7791
  44   2.0000      -0.274826        -7.4784
  45   2.0000      -0.274733        -7.4759
  46   2.0000      -0.228840        -6.2271
  47   0.0000      -0.053475        -1.4551
  48   0.0000      -0.008846        -0.2407
  49   0.0000      -0.008605        -0.2341
  50   0.0000       0.004164         0.1133
  51   0.0000       0.051998         1.4149

MULLIKEN ATOMIC CHARGES
-----------------------
   0 C :   -0.093365
   1 C :   -0.090356
   2 C :   -0.093365
   3 C :   -0.094687
   4 C :   -0.011133
   5 C :   -0.094688
   6 H :    0.096485
   7 C :   -0.021094
   8 C :   -0.021089
   9 C :   -0.011130
  10 C :   -0.094686
  11 C :   -0.093367
  12 C :   -0.090353
  13 C :   -0.093367
  14 C :   -0.094689
  15 H :    0.096485
  16 H :    0.101795
  17 H :    0.102126
  18 H :    0.101795
  19 H :    0.096484
  20 H :    0.096485
  21 H :    0.101795
  22 H :    0.102126
  23 H :    0.101795
Sum of atomic charges:    0.0000000

LOEWDIN ATOMIC CHARGES
----------------------
   0 C :   -0.125577
   1 C :   -0.123930
   2 C :   -0.125577
   3 C :   -0.102619
   4 C :   -0.054168
   5 C :   -0.102619
   6 H :    0.136034
   7 C :   -0.032779
   8 C :   -0.032773
   9 C :   -0.054167
  10 C :   -0.102619
  11 C :   -0.125578
  12 C :   -0.123931
  13 C :   -0.125578
  14 C :   -0.102617
  15 H :    0.136034
  16 H :    0.131987
  17 H :    0.131224
  18 H :    0.131987
  19 H :    0.136034
  20 H :    0.136034
  21 H :    0.131987
  22 H :    0.131223
  23 H :    0.131987

  Mayer bond orders larger than 0.100000
B(  0-C ,  1-C ) :   1.3851 B(  0-C ,  5-C ) :   1.3938 B(  0-C , 23-H ) :   0.9617
B(  1-C ,  2-C ) :   1.3851 B(  1-C , 22-H ) :   0.9632 B(  2-C ,  3-C ) :   1.3938
B(  2-C , 21-H ) :   0.9617 B(  3-C ,  4-C ) :   1.3543 B(  3-C , 20-H ) :   0.9643
B(  4-C ,  5-C ) :   1.3543 B(  4-C ,  7-C ) :   1.0051 B(  5-C ,  6-H ) :   0.9643
B(  7-C ,  8-C ) :   2.6258 B(  8-C ,  9-C ) :   1.0051 B(  9-C , 10-C ) :   1.3543
B(  9-C , 14-C ) :   1.3543 B( 10-C , 11-C ) :   1.3938 B( 10-C , 19-H ) :   0.9643
B( 11-C , 12-C ) :   1.3851 B( 11-C , 18-H ) :   0.9617 B( 12-C , 13-C ) :   1.3851
B( 12-C , 17-H ) :   0.9632 B( 13-C , 14-C ) :   1.3938 B( 13-C , 16-H ) :   0.9617
B( 14-C , 15-H ) :   0.9643

Dispersion correction           -0.024029381
FINAL SINGLE POINT ENERGY      -538.433002961544

DIPOLE MOMENT
-------------

Method             : SCF
Type of density    : Electron Density
Multiplicity       :   1
Irrep              :   0
Energy             :  -538.4089735807526722 Eh
Relativity type    :
Basis              : AO
                                X                 Y                 Z
Electronic contribution:     -0.000008551      -0.000326206       0.000584924
Nuclear contribution   :      0.000001470       0.000375094      -0.000682746
                        -----------------------------------------
Total Dipole Moment    :     -0.000007081       0.000048887      -0.000097822
                        -----------------------------------------
Magnitude (a.u.)       :      0.000109587
Magnitude (Debye)      :      0.000278548

VIBRATIONAL FREQUENCIES
-----------------------

Scaling factor for frequencies =  1.000000000  (already applied!)

     0:       0.00 cm**-1
     1:       0.00 cm**-1
     2:       0.00 cm**-1
     3:       0.00 cm**-1
     4:       0.00 cm**-1
     5:       0.00 cm**-1
     6:      22.47 cm**-1
     7:      44.55 cm**-1
     8:      51.77 cm**-1
     9:     142.21 cm**-1
    10:     152.96 cm**-1
    11:     262.15 cm**-1
    12:     290.75 cm**-1
    13:     413.08 cm**-1
    14:     414.65 cm**-1
    15:     415.72 cm**-1
    16:     474.12 cm**-1
    17:     536.42 cm**-1
    18:     544.78 cm**-1
    19:     580.17 cm**-1
    20:     585.75 cm**-1
    21:     631.69 cm**-1
    22:     639.27 cm**-1
    23:     715.81 cm**-1
    24:     716.11 cm**-1
    25:     717.83 cm**-1
    26:     787.53 cm**-1
    27:     788.32 cm**-1
    28:     863.08 cm**-1
    29:     863.31 cm**-1
    30:     866.71 cm**-1
    31:     946.27 cm**-1
    32:     947.00 cm**-1
    33:    1000.09 cm**-1
    34:    1000.11 cm**-1
    35:    1017.30 cm**-1
    36:    1017.55 cm**-1
    37:    1024.07 cm**-1
    38:    1024.09 cm**-1
    39:    1060.66 cm**-1
    40:    1062.44 cm**-1
    41:    1106.40 cm**-1
    42:    1107.20 cm**-1
    43:    1173.96 cm**-1
    44:    1173.97 cm**-1
    45:    1177.60 cm**-1
    46:    1193.07 cm**-1
    47:    1198.71 cm**-1
    48:    1329.62 cm**-1
    49:    1332.17 cm**-1
    50:    1368.09 cm**-1
    51:    1392.00 cm**-1
    52:    1392.79 cm**-1
    53:    1489.64 cm**-1
    54:    1491.39 cm**-1
    55:    1532.38 cm**-1
    56:    1561.12 cm**-1
    57:    1655.12 cm**-1
    58:    1656.65 cm**-1
    59:    1686.31 cm**-1
    60:    1696.52 cm**-1
    61:    2337.71 cm**-1
    62:    3195.56 cm**-1
    63:    3195.61 cm**-1
    64:    3204.62 cm**-1
    65:    3204.64 cm**-1
    66:    3215.23 cm**-1
    67:    3215.29 cm**-1
    68:    3222.68 cm**-1
    69:    3222.77 cm**-1
    70:    3226.46 cm**-1
    71:    3226.56 cm**-1

IR SPECTRUM
-----------

 Mode   freq       eps      Int      T**2         TX        TY        TZ
       cm**-1   L/(mol*cm) km/mol    a.u.
----------------------------------------------------------------------------
  6:     22.47   0.000000    0.00  0.000000  ( 0.000002 -0.000004  0.000076)
  7:     44.55   0.000095    0.48  0.000669  (-0.000003 -0.025862  0.000015)
  8:     51.77   0.000224    1.13  0.001352  (-0.000011  0.000009  0.036765)
  9:    142.21   0.000000    0.00  0.000000  (-0.000004  0.000004  0.000004)
 10:    152.96   0.000000    0.00  0.000000  (-0.000002 -0.000001 -0.000003)
 11:    262.15   0.000000    0.00  0.000000  ( 0.000000 -0.000000  0.000001)
 12:    290.75   0.000023    0.12  0.000025  (-0.000017 -0.000000  0.004993)
 13:    413.08   0.000000    0.00  0.000000  ( 0.000019  0.000004 -0.000000)
 14:    414.65   0.000000    0.00  0.000000  ( 0.000001  0.000000 -0.000007)
 15:    415.72   0.000000    0.00  0.000000  (-0.000008  0.000004 -0.000001)
 16:    474.12   0.000285    1.44  0.000187  (-0.000006 -0.013691 -0.000000)
 17:    536.42   0.002494   12.61  0.001451  ( 0.000037  0.000000  0.038093)
 18:    544.78   0.003232   16.34  0.001852  (-0.043031 -0.000000  0.000021)
 19:    580.17   0.000000    0.00  0.000000  (-0.000008  0.000001  0.000013)
 20:    585.75   0.000000    0.00  0.000000  ( 0.000014 -0.000001  0.000003)
 21:    631.69   0.000002    0.01  0.000001  ( 0.000001 -0.001054 -0.000000)
 22:    639.27   0.000000    0.00  0.000000  (-0.000004  0.000000  0.000003)
 23:    715.81   0.000000    0.00  0.000000  ( 0.000009 -0.000006 -0.000312)
 24:    716.11   0.014167   71.59  0.006174  (-0.000000 -0.000000  0.078572)
 25:    717.83   0.000000    0.00  0.000000  (-0.000001 -0.000001  0.000024)
 26:    787.53   0.011831   59.79  0.004688  (-0.000009  0.000000  0.068470)
 27:    788.32   0.000000    0.00  0.000000  (-0.000007  0.000011 -0.000003)
 28:    863.08   0.000000    0.00  0.000000  (-0.000000 -0.000001  0.000004)
 29:    863.31   0.000000    0.00  0.000000  (-0.000001  0.000002  0.000000)
 30:    866.71   0.000276    1.40  0.000099  (-0.009974  0.000001  0.000000)
 31:    946.27   0.000000    0.00  0.000000  (-0.000002  0.000001 -0.000028)
 32:    947.00   0.001138    5.75  0.000375  ( 0.000004 -0.000000 -0.019367)
 33:   1000.09   0.000000    0.00  0.000000  ( 0.000000 -0.000001 -0.000005)
 34:   1000.11   0.000000    0.00  0.000000  ( 0.000003  0.000002  0.000000)
 35:   1017.30   0.000143    0.72  0.000044  (-0.006624 -0.000000  0.000000)
 36:   1017.55   0.000000    0.00  0.000000  (-0.000001 -0.000000 -0.000000)
 37:   1024.07   0.000016    0.08  0.000005  ( 0.000001 -0.000000 -0.002203)
 38:   1024.09   0.000000    0.00  0.000000  ( 0.000001  0.000000  0.000010)
 39:   1060.66   0.000000    0.00  0.000000  (-0.000020 -0.000001  0.000002)
 40:   1062.44   0.001754    8.87  0.000515  (-0.022700  0.000001 -0.000001)
 41:   1106.40   0.000000    0.00  0.000000  (-0.000002  0.000023  0.000005)
 42:   1107.20   0.002565   12.96  0.000723  ( 0.000001  0.026888 -0.000000)
 43:   1173.96   0.000000    0.00  0.000000  (-0.000000 -0.000069 -0.000000)
 44:   1173.97   0.000004    0.02  0.000001  ( 0.000000 -0.001034  0.000000)
 45:   1177.60   0.000000    0.00  0.000000  (-0.000001 -0.000000 -0.000000)
 46:   1193.07   0.000145    0.73  0.000038  (-0.006158 -0.000000  0.000000)
 47:   1198.71   0.000000    0.00  0.000000  (-0.000002  0.000000  0.000000)
 48:   1329.62   0.000000    0.00  0.000000  ( 0.000001  0.000003  0.000000)
 49:   1332.17   0.000056    0.28  0.000013  (-0.000001  0.003633 -0.000000)
 50:   1368.09   0.000104    0.52  0.000024  ( 0.004866  0.000000 -0.000001)
 51:   1392.00   0.000000    0.00  0.000000  ( 0.000001  0.000001  0.000001)
 52:   1392.79   0.000049    0.25  0.000011  (-0.000001 -0.003315  0.000000)
 53:   1489.64   0.000000    0.00  0.000000  (-0.000001 -0.000006 -0.000004)
 54:   1491.39   0.002487   12.57  0.000520  ( 0.000001 -0.022812  0.000000)
 55:   1532.38   0.000000    0.00  0.000000  (-0.000000  0.000002 -0.000003)
 56:   1561.12   0.010056   50.82  0.002010  (-0.044834  0.000000 -0.000000)
 57:   1655.12   0.000000    0.00  0.000000  (-0.000001  0.000003  0.000002)
 58:   1656.65   0.000526    2.66  0.000099  (-0.000001 -0.009951 -0.000000)
 59:   1686.31   0.000000    0.00  0.000000  (-0.000003  0.000000 -0.000000)
 60:   1696.52   0.004892   24.72  0.000900  ( 0.029998  0.000001 -0.000000)
 61:   2337.71   0.000000    0.00  0.000000  ( 0.000001 -0.000001  0.000002)
 62:   3195.56   0.000698    3.53  0.000068  ( 0.008255  0.000001 -0.000000)
 63:   3195.61   0.000000    0.00  0.000000  (-0.000055 -0.000000  0.000000)
 64:   3204.62   0.000007    0.04  0.000001  ( 0.000000  0.000832 -0.000002)
 65:   3204.64   0.001264    6.39  0.000123  ( 0.000000  0.011093  0.000000)
 66:   3215.23   0.004379   22.13  0.000425  (-0.020616  0.000000 -0.000001)
 67:   3215.29   0.000000    0.00  0.000000  ( 0.000008  0.000000 -0.000002)
 68:   3222.68   0.000000    0.00  0.000000  (-0.000001  0.000068 -0.000004)
 69:   3222.77   0.004330   21.88  0.000419  (-0.000001  0.020477 -0.000000)
 70:   3226.46   0.002350   11.88  0.000227  (-0.015077 -0.000001  0.000000)
 71:   3226.56   0.000000    0.00  0.000000  ( 0.000018 -0.000002 -0.000000)

--------------------------
THERMOCHEMISTRY AT 298.15K
--------------------------

Temperature         ...   298.15 K
Pressure            ...     1.00 atm
Total Mass          ...   178.23 AMU
Quasi RRHO          ...     True
Cut-Off Frequency   ...     1.00 cm^-1

Throughout the following assumptions are being made:
  (1) The electronic state is orbitally nondegenerate
  (2) There are no thermally accessible electronically excited states
  (3) Hindered rotations indicated by low frequency modes are not
      treated as such but are treated as vibrations and this may
      cause some error
  (4) All equations used are the standard statistical mechanics
      equations for an ideal gas
  (5) All vibrations are strictly harmonic

freq.      22.47  E(vib)   ...       0.56
freq.      44.55  E(vib)   ...       0.53
freq.      51.77  E(vib)   ...       0.52
freq.     142.21  E(vib)   ...       0.41
freq.     152.96  E(vib)   ...       0.40
freq.     262.15  E(vib)   ...       0.29
freq.     290.75  E(vib)   ...       0.27
freq.     413.08  E(vib)   ...       0.19
freq.     414.65  E(vib)   ...       0.19
freq.     415.72  E(vib)   ...       0.18
freq.     474.12  E(vib)   ...       0.15
freq.     536.42  E(vib)   ...       0.12
freq.     544.78  E(vib)   ...       0.12
freq.     580.17  E(vib)   ...       0.11
freq.     585.75  E(vib)   ...       0.11
freq.     631.69  E(vib)   ...       0.09
freq.     639.27  E(vib)   ...       0.09
freq.     715.81  E(vib)   ...       0.07
freq.     716.11  E(vib)   ...       0.07
freq.     717.83  E(vib)   ...       0.07
freq.     787.53  E(vib)   ...       0.05
freq.     788.32  E(vib)   ...       0.05
freq.     863.08  E(vib)   ...       0.04
freq.     863.31  E(vib)   ...       0.04
freq.     866.71  E(vib)   ...       0.04
freq.     946.27  E(vib)   ...       0.03
freq.     947.00  E(vib)   ...       0.03
freq.    1000.09  E(vib)   ...       0.02
freq.    1000.11  E(vib)   ...       0.02
freq.    1017.30  E(vib)   ...       0.02
freq.    1017.55  E(vib)   ...       0.02
freq.    1024.07  E(vib)   ...       0.02
freq.    1024.09  E(vib)   ...       0.02
freq.    1060.66  E(vib)   ...       0.02
freq.    1062.44  E(vib)   ...       0.02
freq.    1106.40  E(vib)   ...       0.02
freq.    1107.20  E(vib)   ...       0.02
freq.    1173.96  E(vib)   ...       0.01
freq.    1173.97  E(vib)   ...       0.01
freq.    1177.60  E(vib)   ...       0.01
freq.    1193.07  E(vib)   ...       0.01
freq.    1198.71  E(vib)   ...       0.01
freq.    1329.62  E(vib)   ...       0.01
freq.    1332.17  E(vib)   ...       0.01
freq.    1368.09  E(vib)   ...       0.01
freq.    1392.00  E(vib)   ...       0.00
freq.    1392.79  E(vib)   ...       0.00
freq.    1489.64  E(vib)   ...       0.00
freq.    1491.39  E(vib)   ...       0.00
freq.    1532.38  E(vib)   ...       0.00
freq.    1561.12  E(vib)   ...       0.00
freq.    1655.12  E(vib)   ...       0.00
freq.    1656.65  E(vib)   ...       0.00
freq.    1686.31  E(vib)   ...       0.00
freq.    1696.52  E(vib)   ...       0.00
freq.    2337.71  E(vib)   ...       0.00
freq.    3195.56  E(vib)   ...       0.00
freq.    3195.61  E(vib)   ...       0.00
freq.    3204.62  E(vib)   ...       0.00
freq.    3204.64  E(vib)   ...       0.00
freq.    3215.23  E(vib)   ...       0.00
freq.    3215.29  E(vib)   ...       0.00
freq.    3222.68  E(vib)   ...       0.00
freq.    3222.77  E(vib)   ...       0.00
freq.    3226.46  E(vib)   ...       0.00
freq.    3226.56  E(vib)   ...       0.00

------------
INNER ENERGY
------------

The inner energy is: U= E(el) + E(ZPE) + E(vib) + E(rot) + E(trans)
    E(el)   - is the total energy from the electronic structure calculation
              = E(kin-el) + E(nuc-el) + E(el-el) + E(nuc-nuc)
    E(ZPE)  - the the zero temperature vibrational energy from the frequency calculation
    E(vib)  - the the finite temperature correction to E(ZPE) due to population
              of excited vibrational states
    E(rot)  - is the rotational thermal energy
    E(trans)- is the translational thermal energy

Summary of contributions to the inner energy U:
Electronic energy                ...   -538.43300296 Eh
Zero point energy                ...      0.19319458 Eh     121.23 kcal/mol
Thermal vibrational correction   ...      0.00814819 Eh       5.11 kcal/mol
Thermal rotational correction    ...      0.00141627 Eh       0.89 kcal/mol
Thermal translational correction ...      0.00141627 Eh       0.89 kcal/mol
-----------------------------------------------------------------------
Total thermal energy                   -538.22882764 Eh

Summary of corrections to the electronic energy:
(perhaps to be used in another calculation)
Total thermal correction                  0.01098074 Eh       6.89 kcal/mol
Non-thermal (ZPE) correction              0.19319458 Eh     121.23 kcal/mol
-----------------------------------------------------------------------
Total correction                          0.20417532 Eh     128.12 kcal/mol

--------
ENTHALPY
--------

The enthalpy is H = U + kB*T
                kB is Boltzmann's constant
Total thermal energy              ...   -538.22882764 Eh
Thermal Enthalpy correction       ...      0.00094421 Eh       0.59 kcal/mol
-----------------------------------------------------------------------
Total Enthalpy                    ...   -538.22788343 Eh

Note: Only C1 symmetry has been detected, increase convergence thresholds
      if your molecule has a higher symmetry. Symmetry factor of 1.0 is
      used for the rotational entropy correction.

Note: Rotational entropy computed according to Herzberg
Infrared and Raman Spectra, Chapter V,1, Van Nostrand Reinhold, 1945
Point Group:  C1, Symmetry Number:   1
Rotational constants in cm-1:     0.094691     0.008279     0.007613

Vibrational entropy computed according to the QRRHO of S. Grimme
Chem.Eur.J. 2012 18 9955 using a reference frequency of 100.0 cm-1

-------
ENTROPY
-------

The entropy contributions are T*S = T*(S(el)+S(vib)+S(rot)+S(trans))
     S(el)   - electronic entropy
     S(vib)  - vibrational entropy
     S(rot)  - rotational entropy
     S(trans)- translational entropy
The entropies will be listed as multiplied by the temperature to get
units of energy

Electronic entropy                ...      0.00000000 Eh      0.00 kcal/mol
Vibrational entropy               ...      0.01408523 Eh      8.84 kcal/mol
Rotational entropy                ...      0.01518964 Eh      9.53 kcal/mol
Translational entropy             ...      0.01968974 Eh     12.36 kcal/mol
-----------------------------------------------------------------------
Final entropy term                ...      0.04896462 Eh     30.73 kcal/mol

                             ****ORCA TERMINATED NORMALLY****
TOTAL RUN TIME: 0 days 0 hours 11 minutes 1 seconds 216 msec
