                         Program Version 6.0.0  -   RELEASE  -
|  1> !PBE0 aug-cc-pVTZ d3 TightSCF SlowConv RIJCOSX defgrid2
|  2>
|  3> %pal
|  4> nprocs 15
|  5> end
|  6>
|  7> %scf
|  8> MaxIter 1500
|  9> end
| 10>
| 11> %maxcore 3500
| 12>
| 13> !CPCM
| 14> %cpcm smd true
| 15> SMDsolvent "WATER"
| 16> surfacetype gepol_ses
| 17> rsolv 1.40
| 18> end
| 19>
| 20> * xyz 1 1
| 21> O           1.69028117689558      3.37274922443931      1.11633962460164
| 22> N           2.64508834536190      2.69181678814397      1.22297469266331
| 23> C           3.79364432352713      2.91279474875315      0.25576222257425
| 24> C           4.41690502024746      1.55735729533319     -0.09476254953002
| 25> C           4.67733661079369      0.66452443423856      1.10383738520721
| 26> C           3.37045256120440      0.39731336490166      1.83970504256275
| 27> C           2.66799498342616      1.66587031114268      2.34113152200502
| 28> C           4.78664458888588      3.85507766004816      0.96313769772216
| 29> C           3.22421911588956      3.59522010625645     -0.98009687677033
| 30> C           3.40931008600286      2.31997828440322      3.52226317122572
| 31> C           1.22422162814495      1.38082655937204      2.72997366883812
| 32> H           5.34884078835654      1.75906997936546     -0.64631285848774
| 33> H           3.75796437018198      1.02598628901689     -0.80296027442862
| 34> H           5.40042447879038      1.13288543625525      1.79577627089786
| 35> H           3.53775872621371     -0.24608048611092      2.71808872702049
| 36> H           2.68001252116369     -0.14819003704925      1.17146867751790
| 37> H           4.27985954283953      4.75359746707821      1.35111103609992
| 38> H           5.34884375946348      3.37256256672533      1.77397975191263
| 39> H           5.50897207558620      4.17777907092180      0.19549951134991
| 40> H           2.86192360014995      4.61263606074173     -0.76851470910027
| 41> H           2.40394906868267      3.00772813007802     -1.42457373280581
| 42> H           4.03437736873618      3.66442610394421     -1.72341542384058
| 43> H           2.99610733981189      3.31548991868264      3.75198408999862
| 44> H           4.49382233017226      2.39980342242512      3.36909605423605
| 45> H           3.23745517084425      1.67163833982347      4.39703137060060
| 46> H           0.73408005868470      2.25325337031983      3.18793394277703
| 47> H           0.62783916292596      1.05008904763585      1.86346734061458
| 48> H           1.23475255281246      0.56405590576186      3.46909994981412
| 49> C           5.33166078892950     -0.63197308222401      0.65212318052779
| 50> O           5.67009393201701     -0.85879399844318     -0.47432905828358
| 51> O           5.48410818268575     -1.47484874010900      1.67290341721619
| 52> H           5.91800326157221     -2.28673051887174      1.34333539126303
| 53> *
| 54>
| 55>                          ****END OF INPUT****

CARTESIAN COORDINATES (ANGSTROEM)
---------------------------------
  O      1.690281    3.372749    1.116340
  N      2.645088    2.691817    1.222975
  C      3.793644    2.912795    0.255762
  C      4.416905    1.557357   -0.094763
  C      4.677337    0.664524    1.103837
  C      3.370453    0.397313    1.839705
  C      2.667995    1.665870    2.341132
  C      4.786645    3.855078    0.963138
  C      3.224219    3.595220   -0.980097
  C      3.409310    2.319978    3.522263
  C      1.224222    1.380827    2.729974
  H      5.348841    1.759070   -0.646313
  H      3.757964    1.025986   -0.802960
  H      5.400424    1.132885    1.795776
  H      3.537759   -0.246080    2.718089
  H      2.680013   -0.148190    1.171469
  H      4.279860    4.753597    1.351111
  H      5.348844    3.372563    1.773980
  H      5.508972    4.177779    0.195500
  H      2.861924    4.612636   -0.768515
  H      2.403949    3.007728   -1.424574
  H      4.034377    3.664426   -1.723415
  H      2.996107    3.315490    3.751984
  H      4.493822    2.399803    3.369096
  H      3.237455    1.671638    4.397031
  H      0.734080    2.253253    3.187934
  H      0.627839    1.050089    1.863467
  H      1.234753    0.564056    3.469100
  C      5.331661   -0.631973    0.652123
  O      5.670094   -0.858794   -0.474329
  O      5.484108   -1.474849    1.672903
  H      5.918003   -2.286731    1.343335

 Total Charge           Charge          ....    1
 Multiplicity           Mult            ....    1
 Number of Electrons    NEL             ....  108
 Basis Dimension        Dim             .... 1058

ORBITAL ENERGIES
----------------

  NO   OCC          E(Eh)            E(eV)
   0   2.0000     -19.349628      -526.5301
   1   2.0000     -19.266868      -524.2781
   2   2.0000     -19.216664      -522.9120
   3   2.0000     -14.629490      -398.0887
   4   2.0000     -10.372959      -282.2626
   5   2.0000     -10.325582      -280.9734
   6   2.0000     -10.324798      -280.9520
   7   2.0000     -10.262500      -279.2568
   8   2.0000     -10.253686      -279.0170
   9   2.0000     -10.249148      -278.8935
  10   2.0000     -10.242901      -278.7235
  11   2.0000     -10.242627      -278.7161
  12   2.0000     -10.232879      -278.4508
  13   2.0000     -10.232362      -278.4367
  14   2.0000      -1.305982       -35.5376
  15   2.0000      -1.156219       -31.4623
  16   2.0000      -1.068773       -29.0828
  17   2.0000      -0.955581       -26.0027
  18   2.0000      -0.888670       -24.1819
  19   2.0000      -0.846110       -23.0238
  20   2.0000      -0.781290       -21.2600
  21   2.0000      -0.740339       -20.1456
  22   2.0000      -0.732143       -19.9226
  23   2.0000      -0.728001       -19.8099
  24   2.0000      -0.702243       -19.1090
  25   2.0000      -0.676533       -18.4094
  26   2.0000      -0.626163       -17.0388
  27   2.0000      -0.610525       -16.6132
  28   2.0000      -0.577701       -15.7200
  29   2.0000      -0.551038       -14.9945
  30   2.0000      -0.549733       -14.9590
  31   2.0000      -0.529982       -14.4215
  32   2.0000      -0.526146       -14.3172
  33   2.0000      -0.496307       -13.5052
  34   2.0000      -0.480408       -13.0726
  35   2.0000      -0.471720       -12.8362
  36   2.0000      -0.463532       -12.6133
  37   2.0000      -0.456405       -12.4194
  38   2.0000      -0.443650       -12.0723
  39   2.0000      -0.435787       -11.8584
  40   2.0000      -0.434203       -11.8153
  41   2.0000      -0.423670       -11.5286
  42   2.0000      -0.411367       -11.1939
  43   2.0000      -0.405158       -11.0249
  44   2.0000      -0.397810       -10.8250
  45   2.0000      -0.393691       -10.7129
  46   2.0000      -0.385093       -10.4789
  47   2.0000      -0.378524       -10.3002
  48   2.0000      -0.372179       -10.1275
  49   2.0000      -0.370359       -10.0780
  50   2.0000      -0.358840        -9.7645
  51   2.0000      -0.354354        -9.6425
  52   2.0000      -0.341156        -9.2833
  53   2.0000      -0.312211        -8.4957
  54   0.0000      -0.157839        -4.2950
  55   0.0000      -0.006269        -0.1706
  56   0.0000       0.001218         0.0331
  57   0.0000       0.009066         0.2467
  58   0.0000       0.012649         0.3442

MULLIKEN ATOMIC CHARGES
-----------------------
   0 O :   -0.849236
   1 N :    0.632659
   2 C :    1.798084
   3 C :   -0.569542
   4 C :    0.874001
   5 C :   -0.924647
   6 C :    1.918540
   7 C :   -1.101418
   8 C :   -1.376460
   9 C :   -1.094285
  10 C :   -1.381823
  11 H :    0.473546
  12 H :    0.149372
  13 H :    0.254216
  14 H :    0.337830
  15 H :    0.264319
  16 H :    0.241071
  17 H :    0.315746
  18 H :    0.048749
  19 H :    0.218861
  20 H :    0.225586
  21 H :    0.205189
  22 H :    0.237807
  23 H :    0.286602
  24 H :    0.059217
  25 H :    0.235552
  26 H :    0.223566
  27 H :    0.178856
  28 C :    0.280634
  29 O :   -0.964808
  30 O :   -0.458396
  31 H :    0.260612
Sum of atomic charges:    1.0000000

LOEWDIN ATOMIC CHARGES
----------------------
   0 O :    0.661556
   1 N :    0.016517
   2 C :   -0.357411
   3 C :    0.297460
   4 C :   -0.023516
   5 C :    0.318944
   6 C :   -0.357209
   7 C :    0.636599
   8 C :    0.590752
   9 C :    0.636230
  10 C :    0.591073
  11 H :   -0.107846
  12 H :   -0.111374
  13 H :   -0.122208
  14 H :   -0.114507
  15 H :   -0.099899
  16 H :   -0.120790
  17 H :   -0.165905
  18 H :   -0.119257
  19 H :   -0.145145
  20 H :   -0.132933
  21 H :   -0.128174
  22 H :   -0.120586
  23 H :   -0.166364
  24 H :   -0.118692
  25 H :   -0.144789
  26 H :   -0.132629
  27 H :   -0.128107
  28 C :   -0.788987
  29 O :    0.484583
  30 O :    0.884094
  31 H :   -0.411480

  Mayer bond orders larger than 0.100000
B(  0-O ,  1-N ) :   0.8585 B(  0-O ,  2-C ) :  -0.1745 B(  0-O ,  6-C ) :  -0.2002
B(  0-O , 10-C ) :   0.1075 B(  1-N ,  2-C ) :   0.6357 B(  1-N ,  3-C ) :   0.1594
B(  1-N ,  5-C ) :   0.1453 B(  1-N ,  6-C ) :   0.6884 B(  1-N ,  7-C ) :   0.1322
B(  1-N ,  9-C ) :   0.1274 B(  2-C ,  3-C ) :   0.4709 B(  2-C ,  6-C ) :   0.2327
B(  2-C ,  7-C ) :   0.3750 B(  2-C ,  8-C ) :   0.2135 B(  3-C ,  4-C ) :   0.9459
B(  3-C ,  5-C ) :   0.2481 B(  3-C , 11-H ) :   0.5868 B(  3-C , 12-H ) :   1.0641
B(  3-C , 28-C ) :  -0.1582 B(  4-C ,  5-C ) :   1.0327 B(  4-C , 13-H ) :   0.8931
B(  4-C , 29-O ) :   0.2068 B(  4-C , 30-O ) :  -0.1151 B(  5-C ,  6-C ) :   0.4060
B(  5-C , 14-H ) :   0.6561 B(  5-C , 15-H ) :   0.9924 B(  5-C , 28-C ) :   0.2898
B(  6-C ,  9-C ) :   0.3615 B(  6-C , 10-C ) :   0.1989 B(  7-C ,  8-C ) :   0.1306
B(  7-C , 16-H ) :   0.9413 B(  7-C , 17-H ) :   0.8821 B(  7-C , 18-H ) :   1.2011
B(  8-C , 19-H ) :   0.9933 B(  8-C , 20-H ) :   1.0388 B(  8-C , 21-H ) :   1.0284
B(  9-C , 10-C ) :   0.1314 B(  9-C , 22-H ) :   0.9408 B(  9-C , 23-H ) :   0.9206
B(  9-C , 24-H ) :   1.1843 B( 10-C , 25-H ) :   0.9573 B( 10-C , 26-H ) :   1.0441
B( 10-C , 27-H ) :   1.0738 B( 13-H , 28-C ) :  -0.2181 B( 13-H , 29-O ) :  -0.1057
B( 28-C , 29-O ) :   1.1151 B( 28-C , 30-O ) :   0.9644 B( 29-O , 30-O ) :   0.1075
B( 30-O , 31-H ) :   0.9482

Dispersion correction           -0.033172388
FINAL SINGLE POINT ENERGY      -671.629473733632

DIPOLE MOMENT
-------------

Method             : SCF
Type of density    : Electron Density
Multiplicity       :   1
Irrep              :   0
Energy             :  -671.5963013458110709 Eh
Relativity type    :
Basis              : AO
                                X                 Y                 Z
Electronic contribution:      2.075152617      -6.910881759      -2.919041341
Nuclear contribution   :     -2.863841370       8.211044193       4.273231293
                        -----------------------------------------
Total Dipole Moment    :     -0.788688753       1.300162434       1.354189952
                        -----------------------------------------
Magnitude (a.u.)       :      2.036242306
Magnitude (Debye)      :      5.175716622

Rotational constants in cm-1:             0.032285             0.018393             0.014243
Rotational constants in MHz :           967.865978           551.414458           426.998453

                             ****ORCA TERMINATED NORMALLY****
TOTAL RUN TIME: 0 days 0 hours 18 minutes 38 seconds 826 msec
