                         Program Version 6.0.0  -   RELEASE  -
|  1> !TPSSh aug-cc-pVTZ d3 TightSCF SlowConv RIJCOSX defgrid2
|  2>
|  3> %pal
|  4> nprocs 4
|  5> end
|  6>
|  7> %scf
|  8> MaxIter 1500
|  9> end
| 10>
| 11> %maxcore 3000
| 12>
| 13> !CPCM
| 14> %cpcm smd true
| 15> SMDsolvent "MeCN"
| 16> surfacetype gepol_ses
| 17> rsolv 2.19
| 18> end
| 19>
| 20> * xyz 0 1
| 21> C           1.70794904224376      1.04467574002160     -0.00082115823630
| 22> C           0.54506091843343      1.80041636987342      0.00092727542514
| 23> C          -0.71995737134675      1.20789382518015      0.00266725175734
| 24> C          -0.79928034034382     -0.18958869725345      0.00203404950996
| 25> C           0.36555187029785     -0.96292788679972     -0.00127682462626
| 26> C           1.62853570763603     -0.36210788791669     -0.00033727635058
| 27> N           2.77536570496609     -1.13072452733301      0.04605337906448
| 28> H           2.68782736481958     -2.09774939602609     -0.24334837672475
| 29> H           3.63153622370525     -0.68698285577236     -0.26446400959356
| 30> H           0.26012985099536     -2.05117646749275      0.00119199205899
| 31> O          -1.95887797909201     -0.88292631196206      0.00111465750073
| 32> C          -3.16473217214371     -0.17733625608172      0.00517658162857
| 33> H          -3.96763161416444     -0.93012200833219      0.00565020749220
| 34> H          -3.27146637162925      0.46046835612956     -0.89370073464759
| 35> H          -3.26716187551626      0.45698983325543      0.90693586054833
| 36> H          -1.61360225529630      1.83287965977611      0.00353042246975
| 37> H           0.61871381842504      2.89254399544489      0.00007743154790
| 38> H           2.68668417801016      1.53365321528886      0.00373907117562
| 39> *
| 40>
| 41>                          ****END OF INPUT****

CARTESIAN COORDINATES (ANGSTROEM)
---------------------------------
  C      1.707949    1.044676   -0.000821
  C      0.545061    1.800416    0.000927
  C     -0.719957    1.207894    0.002667
  C     -0.799280   -0.189589    0.002034
  C      0.365552   -0.962928   -0.001277
  C      1.628536   -0.362108   -0.000337
  N      2.775366   -1.130725    0.046053
  H      2.687827   -2.097749   -0.243348
  H      3.631536   -0.686983   -0.264464
  H      0.260130   -2.051176    0.001192
  O     -1.958878   -0.882926    0.001115
  C     -3.164732   -0.177336    0.005177
  H     -3.967632   -0.930122    0.005650
  H     -3.271466    0.460468   -0.893701
  H     -3.267162    0.456990    0.906936
  H     -1.613602    1.832880    0.003530
  H      0.618714    2.892544    0.000077
  H      2.686684    1.533653    0.003739

 Total Charge           Charge          ....    0
 Multiplicity           Mult            ....    1
 Number of Electrons    NEL             ....   66
 Basis Dimension        Dim             ....  621

ORBITAL ENERGIES
----------------

  NO   OCC          E(Eh)            E(eV)
   0   2.0000     -19.082577      -519.2633
   1   2.0000     -14.250090      -387.7647
   2   2.0000     -10.171469      -276.7798
   3   2.0000     -10.155987      -276.3585
   4   2.0000     -10.154639      -276.3218
   5   2.0000     -10.115019      -275.2436
   6   2.0000     -10.101966      -274.8885
   7   2.0000     -10.101708      -274.8814
   8   2.0000     -10.101702      -274.8813
   9   2.0000      -1.049328       -28.5537
  10   2.0000      -0.894885       -24.3511
  11   2.0000      -0.812769       -22.1166
  12   2.0000      -0.733589       -19.9620
  13   2.0000      -0.703762       -19.1503
  14   2.0000      -0.668215       -18.1831
  15   2.0000      -0.589554       -16.0426
  16   2.0000      -0.567953       -15.4548
  17   2.0000      -0.514751       -14.0071
  18   2.0000      -0.493004       -13.4153
  19   2.0000      -0.463664       -12.6169
  20   2.0000      -0.446677       -12.1547
  21   2.0000      -0.445290       -12.1170
  22   2.0000      -0.437680       -11.9099
  23   2.0000      -0.399439       -10.8693
  24   2.0000      -0.383006       -10.4221
  25   2.0000      -0.372985       -10.1494
  26   2.0000      -0.348708        -9.4888
  27   2.0000      -0.341528        -9.2934
  28   2.0000      -0.323854        -8.8125
  29   2.0000      -0.305265        -8.3067
  30   2.0000      -0.283378        -7.7111
  31   2.0000      -0.214538        -5.8379
  32   2.0000      -0.193929        -5.2771
  33   0.0000      -0.016937        -0.4609
  34   0.0000      -0.004217        -0.1147
  35   0.0000       0.001696         0.0462
  36   0.0000       0.006569         0.1788
  37   0.0000       0.011435         0.3112

MULLIKEN ATOMIC CHARGES
-----------------------
   0 C :   -0.592330
   1 C :   -0.232012
   2 C :   -0.430555
   3 C :    0.936753
   4 C :   -0.840455
   5 C :    1.065761
   6 N :   -0.598916
   7 H :    0.008073
   8 H :    0.007779
   9 H :    0.224886
  10 O :   -0.691617
  11 C :   -0.274817
  12 H :    0.024313
  13 H :    0.194373
  14 H :    0.195944
  15 H :    0.324501
  16 H :    0.382288
  17 H :    0.296031
Sum of atomic charges:    0.0000000

LOEWDIN ATOMIC CHARGES
----------------------
   0 C :    0.193167
   1 C :    0.157493
   2 C :    0.179873
   3 C :   -0.425449
   4 C :    0.208420
   5 C :   -0.281281
   6 N :    0.852401
   7 H :   -0.283602
   8 H :   -0.284342
   9 H :   -0.173621
  10 O :    0.593229
  11 C :    0.310673
  12 H :   -0.170377
  13 H :   -0.162641
  14 H :   -0.162650
  15 H :   -0.201754
  16 H :   -0.173074
  17 H :   -0.176465

  Mayer bond orders larger than 0.100000
B(  0-C ,  1-C ) :   1.3257 B(  0-C ,  2-C ) :   0.2894 B(  0-C ,  3-C ) :  -0.1059
B(  0-C ,  4-C ) :   0.4844 B(  0-C ,  5-C ) :   0.7536 B(  0-C ,  6-N ) :  -0.1158
B(  0-C , 17-H ) :   0.5754 B(  1-C ,  2-C ) :   1.1379 B(  1-C ,  3-C ) :  -0.2343
B(  1-C ,  4-C ) :  -0.1693 B(  1-C ,  5-C ) :  -0.2114 B(  1-C , 16-H ) :   0.6321
B(  2-C ,  3-C ) :   0.8958 B(  2-C ,  4-C ) :   0.4448 B(  2-C ,  5-C ) :  -0.1085
B(  2-C , 10-O ) :  -0.1317 B(  2-C , 15-H ) :   0.5602 B(  3-C ,  4-C ) :   0.5916
B(  3-C , 10-O ) :   0.1234 B(  3-C , 11-C ) :   0.1646 B(  3-C , 15-H ) :   0.1024
B(  4-C ,  5-C ) :   0.7287 B(  4-C ,  9-H ) :   0.5843 B(  4-C , 10-O ) :   0.3404
B(  5-C ,  6-N ) :   0.3827 B(  5-C ,  9-H ) :   0.1350 B(  5-C , 17-H ) :   0.1135
B(  6-N ,  7-H ) :   1.1132 B(  6-N ,  8-H ) :   1.1132 B( 10-O , 11-C ) :   1.0011
B( 11-C , 12-H ) :   1.0717 B( 11-C , 13-H ) :   0.9257 B( 11-C , 14-H ) :   0.9262

Dispersion correction           -0.020107775
FINAL SINGLE POINT ENERGY      -402.332178457256

DIPOLE MOMENT
-------------

Method             : SCF
Type of density    : Electron Density
Multiplicity       :   1
Irrep              :   0
Energy             :  -402.3120706819221368 Eh
Relativity type    :
Basis              : AO
                                X                 Y                 Z
Electronic contribution:      2.278242531      -1.351544057       0.033818041
Nuclear contribution   :     -2.112843888       1.316658506      -0.469607068
                        -----------------------------------------
Total Dipole Moment    :      0.165398644      -0.034885551      -0.435789027
                        -----------------------------------------
Magnitude (a.u.)       :      0.467424635
Magnitude (Debye)      :      1.188099002

Rotational constants in cm-1:             0.120502             0.037824             0.028965
Rotational constants in MHz :          3612.547947          1133.927652           868.354096

                             ****ORCA TERMINATED NORMALLY****
TOTAL RUN TIME: 0 days 0 hours 4 minutes 18 seconds 976 msec
