                         Program Version 6.0.0  -   RELEASE  -
|  1> !r2SCAN aug-cc-pVTZ d3 TightSCF SlowConv RIJCOSX defgrid2
|  2>
|  3> %pal
|  4> nprocs 4
|  5> end
|  6>
|  7> %scf
|  8> MaxIter 1500
|  9> end
| 10>
| 11> %maxcore 3000
| 12>
| 13> !CPCM
| 14> %cpcm smd true
| 15> SMDsolvent "MeCN"
| 16> surfacetype gepol_ses
| 17> rsolv 2.19
| 18> end
| 19>
| 20> * xyz 1 2
| 21> C           1.11125997383576     -1.29424514996325     -0.00265064680051
| 22> C           0.38198773558317      0.02008196306092     -0.00073603831801
| 23> C           1.09787452277410      1.23185818450004     -0.01840094347389
| 24> C           2.57516897563739      1.29944130725048     -0.05423021306044
| 25> C           3.25276060267681     -0.03006541948416     -0.36652594694293
| 26> C           2.57851945407381     -1.15958568043340      0.39766653752240
| 27> H           3.08673048588062     -2.11897794137244      0.21233290930891
| 28> H           2.64919644329653     -0.97201856058805      1.48490961905849
| 29> H           4.32300865456417      0.02994921608983     -0.11393141051059
| 30> H           3.19729504970193     -0.22847646380504     -1.45259326590540
| 31> H           2.88017444257326      2.09814619264511     -0.75665169289489
| 32> H           2.90436924042770      1.68065620438759      0.93876248720231
| 33> H           0.54894601237680      2.17778008647932      0.00559677216772
| 34> N          -0.94881866071091      0.02146974198586     -0.00750665676214
| 35> C          -1.80124595163478      1.22171206218783      0.02414035141441
| 36> C          -3.20201957398761      0.67299556712206      0.26488079247656
| 37> C          -3.16019989927783     -0.69168873479307     -0.41474108783946
| 38> C          -1.76503158912719     -1.19776594082048     -0.07505159311078
| 39> H          -1.34448546450201     -1.89626495900324     -0.81481906895254
| 40> H          -1.73682708705057     -1.69322252819275      0.91433806284159
| 41> H          -3.94379277720373     -1.38008145705625     -0.06506994380082
| 42> H          -3.26951180028075     -0.58721234569693     -1.50795872354530
| 43> H          -3.97836095131839      1.34028947438083     -0.13789958124651
| 44> H          -3.38451416042342      0.56256073325110      1.34753390290322
| 45> H          -1.45816127292513      1.91216175251807      0.80965132239800
| 46> H          -1.72037794411018      1.73381076618573     -0.95200027343459
| 47> H           0.59311740358867     -2.00524001309646      0.66292893429951
| 48> H           1.03641913556176     -1.72255585773926     -1.02261090499431
| 49> *
| 50>
| 51>                          ****END OF INPUT****

CARTESIAN COORDINATES (ANGSTROEM)
---------------------------------
  C      1.111260   -1.294245   -0.002651
  C      0.381988    0.020082   -0.000736
  C      1.097875    1.231858   -0.018401
  C      2.575169    1.299441   -0.054230
  C      3.252761   -0.030065   -0.366526
  C      2.578519   -1.159586    0.397667
  H      3.086730   -2.118978    0.212333
  H      2.649196   -0.972019    1.484910
  H      4.323009    0.029949   -0.113931
  H      3.197295   -0.228476   -1.452593
  H      2.880174    2.098146   -0.756652
  H      2.904369    1.680656    0.938762
  H      0.548946    2.177780    0.005597
  N     -0.948819    0.021470   -0.007507
  C     -1.801246    1.221712    0.024140
  C     -3.202020    0.672996    0.264881
  C     -3.160200   -0.691689   -0.414741
  C     -1.765032   -1.197766   -0.075052
  H     -1.344485   -1.896265   -0.814819
  H     -1.736827   -1.693223    0.914338
  H     -3.943793   -1.380081   -0.065070
  H     -3.269512   -0.587212   -1.507959
  H     -3.978361    1.340289   -0.137900
  H     -3.384514    0.562561    1.347534
  H     -1.458161    1.912162    0.809651
  H     -1.720378    1.733811   -0.952000
  H      0.593117   -2.005240    0.662929
  H      1.036419   -1.722556   -1.022611

 Total Charge           Charge          ....    1
 Multiplicity           Mult            ....    2
 Number of Electrons    NEL             ....   83
 Basis Dimension        Dim             ....  897

ORBITAL ENERGIES
----------------
                 SPIN UP ORBITALS
  NO   OCC          E(Eh)            E(eV)
   0   1.0000     -14.265375      -388.1806
   1   1.0000     -10.122604      -275.4500
   2   1.0000     -10.089063      -274.5374
   3   1.0000     -10.088469      -274.5212
   4   1.0000     -10.087058      -274.4828
   5   1.0000     -10.056210      -273.6434
   6   1.0000     -10.051252      -273.5085
   7   1.0000     -10.045745      -273.3586
   8   1.0000     -10.045419      -273.3497
   9   1.0000     -10.039438      -273.1870
  10   1.0000     -10.036933      -273.1188
  11   1.0000      -0.982484       -26.7347
  12   1.0000      -0.831764       -22.6335
  13   1.0000      -0.782288       -21.2871
  14   1.0000      -0.745076       -20.2745
  15   1.0000      -0.719715       -19.5844
  16   1.0000      -0.710275       -19.3276
  17   1.0000      -0.626830       -17.0569
  18   1.0000      -0.612261       -16.6605
  19   1.0000      -0.566115       -15.4048
  20   1.0000      -0.561716       -15.2851
  21   1.0000      -0.527975       -14.3669
  22   1.0000      -0.495963       -13.4958
  23   1.0000      -0.492885       -13.4121
  24   1.0000      -0.446544       -12.1511
  25   1.0000      -0.437832       -11.9140
  26   1.0000      -0.417242       -11.3537
  27   1.0000      -0.415092       -11.2952
  28   1.0000      -0.409995       -11.1565
  29   1.0000      -0.398759       -10.8508
  30   1.0000      -0.386353       -10.5132
  31   1.0000      -0.377904       -10.2833
  32   1.0000      -0.372306       -10.1310
  33   1.0000      -0.364033        -9.9058
  34   1.0000      -0.333178        -9.0662
  35   1.0000      -0.330989        -9.0067
  36   1.0000      -0.309906        -8.4330
  37   1.0000      -0.308359        -8.3909
  38   1.0000      -0.304731        -8.2922
  39   1.0000      -0.300950        -8.1893
  40   1.0000      -0.296693        -8.0734
  41   1.0000      -0.225096        -6.1252
  42   0.0000      -0.040184        -1.0935
  43   0.0000       0.000675         0.0184
  44   0.0000       0.015936         0.4337
  45   0.0000       0.018790         0.5113
  46   0.0000       0.020583         0.5601

                 SPIN DOWN ORBITALS
  NO   OCC          E(Eh)            E(eV)
   0   1.0000     -14.255249      -387.9051
   1   1.0000     -10.124340      -275.4973
   2   1.0000     -10.088757      -274.5290
   3   1.0000     -10.087460      -274.4937
   4   1.0000     -10.078286      -274.2441
   5   1.0000     -10.056097      -273.6403
   6   1.0000     -10.051606      -273.5181
   7   1.0000     -10.045696      -273.3573
   8   1.0000     -10.045388      -273.3489
   9   1.0000     -10.039449      -273.1873
  10   1.0000     -10.036863      -273.1169
  11   1.0000      -0.969882       -26.3918
  12   1.0000      -0.825931       -22.4747
  13   1.0000      -0.780856       -21.2482
  14   1.0000      -0.739239       -20.1157
  15   1.0000      -0.717325       -19.5194
  16   1.0000      -0.703454       -19.1420
  17   1.0000      -0.625507       -17.0209
  18   1.0000      -0.606479       -16.5031
  19   1.0000      -0.562932       -15.3182
  20   1.0000      -0.559202       -15.2167
  21   1.0000      -0.524316       -14.2674
  22   1.0000      -0.489740       -13.3265
  23   1.0000      -0.485086       -13.1999
  24   1.0000      -0.441584       -12.0161
  25   1.0000      -0.433974       -11.8090
  26   1.0000      -0.414003       -11.2656
  27   1.0000      -0.413189       -11.2435
  28   1.0000      -0.407218       -11.0810
  29   1.0000      -0.389952       -10.6111
  30   1.0000      -0.383789       -10.4434
  31   1.0000      -0.375465       -10.2169
  32   1.0000      -0.369916       -10.0659
  33   1.0000      -0.356848        -9.7103
  34   1.0000      -0.332318        -9.0428
  35   1.0000      -0.330408        -8.9909
  36   1.0000      -0.308613        -8.3978
  37   1.0000      -0.306402        -8.3376
  38   1.0000      -0.302681        -8.2364
  39   1.0000      -0.296775        -8.0756
  40   1.0000      -0.285017        -7.7557
  41   0.0000      -0.160133        -4.3574
  42   0.0000      -0.010032        -0.2730
  43   0.0000       0.003396         0.0924
  44   0.0000       0.017365         0.4725
  45   0.0000       0.020336         0.5534

MULLIKEN ATOMIC CHARGES AND SPIN POPULATIONS
--------------------------------------------
   0 C :    0.171348    0.038067
   1 C :    0.655584   -0.091050
   2 C :   -0.333965    0.594215
   3 C :   -0.263879   -0.114096
   4 C :   -0.256204   -0.003733
   5 C :   -0.446822    0.001485
   6 H :    0.192159    0.001299
   7 H :    0.072781   -0.002367
   8 H :    0.186324   -0.000121
   9 H :    0.102915   -0.001114
  10 H :    0.176376    0.028000
  11 H :    0.146239    0.073192
  12 H :    0.065579    0.051943
  13 N :    0.232801    0.413541
  14 C :   -0.403273   -0.017218
  15 C :   -0.391510    0.002368
  16 C :   -0.330729   -0.001328
  17 C :   -0.350513   -0.033833
  18 H :    0.221927    0.012926
  19 H :    0.213298    0.037909
  20 H :    0.232088   -0.000039
  21 H :    0.056778    0.000355
  22 H :    0.226904   -0.000272
  23 H :    0.064756    0.000256
  24 H :    0.215957    0.006834
  25 H :    0.191094    0.016993
  26 H :    0.193474   -0.008178
  27 H :    0.158514   -0.006035
Sum of atomic charges         :    1.0000000

LOEWDIN ATOMIC CHARGES AND SPIN POPULATIONS
-------------------------------------------
   0 C :    0.318931    0.001265
   1 C :   -0.099703    0.098155
   2 C :    0.356486    0.319792
   3 C :    0.301428    0.099913
   4 C :    0.292682    0.005170
   5 C :    0.300076    0.001955
   6 H :   -0.121913    0.000265
   7 H :   -0.118983    0.000286
   8 H :   -0.125431    0.000100
   9 H :   -0.122790    0.000908
  10 H :   -0.119480    0.015041
  11 H :   -0.111378    0.028665
  12 H :   -0.149816    0.061222
  13 N :    0.346483    0.237852
  14 C :    0.265124    0.035756
  15 C :    0.325092    0.000726
  16 C :    0.327228    0.002455
  17 C :    0.265348    0.046641
  18 H :   -0.113229    0.008421
  19 H :   -0.094686    0.016376
  20 H :   -0.117446   -0.000044
  21 H :   -0.119419    0.000377
  22 H :   -0.117766   -0.000042
  23 H :   -0.120305    0.000033
  24 H :   -0.114657    0.007676
  25 H :   -0.095799    0.011461
  26 H :   -0.130225   -0.000653
  27 H :   -0.105851    0.000228

  Mayer bond orders larger than 0.100000
B(  0-C ,  1-C ) :   0.4357 B(  0-C ,  5-C ) :   0.8752 B(  0-C , 26-H ) :   0.9225
B(  0-C , 27-H ) :   0.9741 B(  1-C ,  2-C ) :   0.1765 B(  1-C ,  3-C ) :  -0.1872
B(  1-C ,  4-C ) :  -0.1421 B(  1-C , 12-H ) :  -0.1698 B(  1-C , 13-N ) :   0.5214
B(  2-C ,  3-C ) :   0.7371 B(  2-C ,  4-C ) :   0.2018 B(  2-C , 12-H ) :   0.9087
B(  2-C , 13-N ) :  -0.1813 B(  2-C , 14-C ) :  -0.1141 B(  2-C , 17-C ) :   0.1239
B(  3-C ,  4-C ) :   0.9087 B(  3-C ,  5-C ) :   0.1112 B(  3-C , 10-H ) :   0.9436
B(  3-C , 11-H ) :   0.9861 B(  4-C ,  5-C ) :   0.9102 B(  4-C ,  8-H ) :   0.9479
B(  4-C ,  9-H ) :   1.0325 B(  5-C ,  6-H ) :   0.9353 B(  5-C ,  7-H ) :   1.0667
B( 12-H , 14-C ) :  -0.1059 B( 13-N , 14-C ) :   0.7979 B( 13-N , 17-C ) :   0.6773
B( 14-C , 15-C ) :   0.9064 B( 14-C , 16-C ) :   0.1107 B( 14-C , 24-H ) :   0.9845
B( 14-C , 25-H ) :   0.9834 B( 15-C , 16-C ) :   0.9498 B( 15-C , 17-C ) :   0.1345
B( 15-C , 22-H ) :   0.9424 B( 15-C , 23-H ) :   1.0652 B( 16-C , 17-C ) :   0.8744
B( 16-C , 20-H ) :   0.9307 B( 16-C , 21-H ) :   1.0763 B( 17-C , 18-H ) :   0.9482
B( 17-C , 19-H ) :   0.9503

Dispersion correction           -0.009067634
FINAL SINGLE POINT ENERGY      -445.788209014383

DIPOLE MOMENT
-------------

Method             : SCF
Type of density    : Electron Density
Multiplicity       :   2
Irrep              :   0
Energy             :  -445.7791413804339413 Eh
Relativity type    :
Basis              : AO
                                X                 Y                 Z
Electronic contribution:     -0.948943506       1.287721676       0.063503536
Nuclear contribution   :      0.360970584      -1.012753361      -0.049963368
                        -----------------------------------------
Total Dipole Moment    :     -0.587972922       0.274968314       0.013540168
                        -----------------------------------------
Magnitude (a.u.)       :      0.649232675
Magnitude (Debye)      :      1.650218316

Rotational constants in cm-1:             0.091390             0.021094             0.017904
Rotational constants in MHz :          2739.816467           632.377129           536.750842

                             ****ORCA TERMINATED NORMALLY****
TOTAL RUN TIME: 0 days 0 hours 9 minutes 43 seconds 10 msec
