                         Program Version 6.0.0  -   RELEASE  -
|  1> !r2SCANh aug-cc-pVTZ d3 TightSCF SlowConv RIJCOSX defgrid2
|  2>
|  3> %pal
|  4> nprocs 4
|  5> end
|  6>
|  7> %scf
|  8> MaxIter 1500
|  9> end
| 10>
| 11> %maxcore 3000
| 12>
| 13> !CPCM
| 14> %cpcm smd true
| 15> SMDsolvent "MeCN"
| 16> surfacetype gepol_ses
| 17> rsolv 2.19
| 18> end
| 19>
| 20> * xyz 0 1
| 21> C           1.57085042838004     -1.17474438788844     -0.33321365208336
| 22> C           2.96192041551293     -1.15651629940685     -0.31860147015010
| 23> C           3.64782695539498      0.00855864334947      0.02599003748590
| 24> C           2.92361947907694      1.15458909719340      0.34785674698480
| 25> C           1.53060388669529      1.13435322432905      0.32993520415109
| 26> C           0.82328467622844     -0.03397612396155      0.00340161993556
| 27> C          -0.65741272614693     -0.04733327290659      0.00534536563332
| 28> C          -1.35282390658214     -1.16758358658154      0.27962064543062
| 29> C          -2.84853700806778     -1.25828591796901      0.30847424531628
| 30> C          -3.51990150406660      0.11087068594057      0.31565142940002
| 31> C          -2.83381225328130      1.04341808051259     -0.67327419385531
| 32> C          -1.37142433850592      1.25026584913834     -0.29589644947955
| 33> H          -0.83991530281643      1.78116962585690     -1.10618334228773
| 34> H          -1.30989672858064      1.91765444185113      0.58676465237026
| 35> H          -3.35148405171204      2.01729252554914     -0.71973408682922
| 36> H          -2.89053837289839      0.60490265207129     -1.68762863260766
| 37> H          -4.59471066896096      0.01138665951998      0.08467603040594
| 38> H          -3.45292200027469      0.54772553729573      1.33001780873961
| 39> H          -3.19002868806132     -1.84280149491509     -0.57088642583127
| 40> H          -3.16602339134086     -1.84941487747488      1.18737448619474
| 41> H          -0.80474635256816     -2.08768769328037      0.51396987653596
| 42> H           0.98362946668811      2.04390039060663      0.59144870231404
| 43> H           3.44740931149543      2.07717728450666      0.61616083395012
| 44> H           4.74164950120465      0.02477698912015      0.03349122220482
| 45> H           3.51725863806072     -2.05891161890825     -0.59221005705267
| 46> H           1.04979053512663     -2.08648421354846     -0.63790469687620
| 47> *
| 48>
| 49>                          ****END OF INPUT****

CARTESIAN COORDINATES (ANGSTROEM)
---------------------------------
  C      1.570850   -1.174744   -0.333214
  C      2.961920   -1.156516   -0.318601
  C      3.647827    0.008559    0.025990
  C      2.923619    1.154589    0.347857
  C      1.530604    1.134353    0.329935
  C      0.823285   -0.033976    0.003402
  C     -0.657413   -0.047333    0.005345
  C     -1.352824   -1.167584    0.279621
  C     -2.848537   -1.258286    0.308474
  C     -3.519902    0.110871    0.315651
  C     -2.833812    1.043418   -0.673274
  C     -1.371424    1.250266   -0.295896
  H     -0.839915    1.781170   -1.106183
  H     -1.309897    1.917654    0.586765
  H     -3.351484    2.017293   -0.719734
  H     -2.890538    0.604903   -1.687629
  H     -4.594711    0.011387    0.084676
  H     -3.452922    0.547726    1.330018
  H     -3.190029   -1.842801   -0.570886
  H     -3.166023   -1.849415    1.187374
  H     -0.804746   -2.087688    0.513970
  H      0.983629    2.043900    0.591449
  H      3.447409    2.077177    0.616161
  H      4.741650    0.024777    0.033491
  H      3.517259   -2.058912   -0.592210
  H      1.049791   -2.086484   -0.637905

 Total Charge           Charge          ....    0
 Multiplicity           Mult            ....    1
 Number of Electrons    NEL             ....   86
 Basis Dimension        Dim             ....  874

ORBITAL ENERGIES
----------------

  NO   OCC          E(Eh)            E(eV)
   0   2.0000     -10.170732      -276.7597
   1   2.0000     -10.161080      -276.4970
   2   2.0000     -10.159680      -276.4589
   3   2.0000     -10.159590      -276.4565
   4   2.0000     -10.158008      -276.4134
   5   2.0000     -10.157906      -276.4107
   6   2.0000     -10.157774      -276.4071
   7   2.0000     -10.150158      -276.1998
   8   2.0000     -10.149705      -276.1875
   9   2.0000     -10.149585      -276.1842
  10   2.0000     -10.144361      -276.0421
  11   2.0000     -10.143644      -276.0226
  12   2.0000      -0.863619       -23.5003
  13   2.0000      -0.830971       -22.6119
  14   2.0000      -0.770466       -20.9655
  15   2.0000      -0.745586       -20.2884
  16   2.0000      -0.733898       -19.9704
  17   2.0000      -0.713202       -19.4072
  18   2.0000      -0.620516       -16.8851
  19   2.0000      -0.611010       -16.6264
  20   2.0000      -0.584153       -15.8956
  21   2.0000      -0.570510       -15.5244
  22   2.0000      -0.513999       -13.9866
  23   2.0000      -0.495855       -13.4929
  24   2.0000      -0.464302       -12.6343
  25   2.0000      -0.444158       -12.0862
  26   2.0000      -0.439696       -11.9647
  27   2.0000      -0.420793       -11.4504
  28   2.0000      -0.411284       -11.1916
  29   2.0000      -0.404581       -11.0092
  30   2.0000      -0.397431       -10.8146
  31   2.0000      -0.383461       -10.4345
  32   2.0000      -0.372469       -10.1354
  33   2.0000      -0.362812        -9.8726
  34   2.0000      -0.356889        -9.7114
  35   2.0000      -0.335040        -9.1169
  36   2.0000      -0.326418        -8.8823
  37   2.0000      -0.308495        -8.3946
  38   2.0000      -0.298887        -8.1331
  39   2.0000      -0.290467        -7.9040
  40   2.0000      -0.271074        -7.3763
  41   2.0000      -0.252424        -6.8688
  42   2.0000      -0.214215        -5.8291
  43   0.0000      -0.043007        -1.1703
  44   0.0000      -0.024441        -0.6651
  45   0.0000       0.008289         0.2256
  46   0.0000       0.019617         0.5338
  47   0.0000       0.023045         0.6271

MULLIKEN ATOMIC CHARGES
-----------------------
   0 C :   -0.987857
   1 C :   -0.861707
   2 C :   -0.133726
   3 C :   -0.946845
   4 C :   -0.923340
   5 C :    2.158351
   6 C :    1.929083
   7 C :   -1.155706
   8 C :   -0.145383
   9 C :   -0.302008
  10 C :   -0.503144
  11 C :   -0.260129
  12 H :    0.160175
  13 H :    0.202971
  14 H :    0.166899
  15 H :    0.109618
  16 H :    0.206367
  17 H :    0.128917
  18 H :    0.147136
  19 H :    0.171036
  20 H :   -0.225228
  21 H :   -0.169878
  22 H :    0.450263
  23 H :    0.510180
  24 H :    0.487825
  25 H :   -0.213870
Sum of atomic charges:   -0.0000000

LOEWDIN ATOMIC CHARGES
----------------------
   0 C :    0.202325
   1 C :    0.188397
   2 C :    0.180054
   3 C :    0.189031
   4 C :    0.204795
   5 C :   -0.125603
   6 C :   -0.083204
   7 C :    0.253665
   8 C :    0.266660
   9 C :    0.270642
  10 C :    0.276529
  11 C :    0.262521
  12 H :   -0.131353
  13 H :   -0.128849
  14 H :   -0.128112
  15 H :   -0.125811
  16 H :   -0.130091
  17 H :   -0.128315
  18 H :   -0.130667
  19 H :   -0.137062
  20 H :   -0.173861
  21 H :   -0.178447
  22 H :   -0.170792
  23 H :   -0.174006
  24 H :   -0.171017
  25 H :   -0.177431

  Mayer bond orders larger than 0.100000
B(  0-C ,  1-C ) :   1.1843 B(  0-C ,  2-C ) :  -0.1897 B(  0-C ,  4-C ) :  -0.8548
B(  0-C ,  6-C ) :   0.3731 B(  0-C , 21-H ) :   0.1597 B(  0-C , 24-H ) :  -0.1287
B(  0-C , 25-H ) :   1.9901 B(  1-C ,  2-C ) :   1.1140 B(  1-C ,  3-C ) :   0.2921
B(  1-C ,  6-C ) :  -0.1420 B(  1-C , 21-H ) :  -0.1801 B(  1-C , 23-H ) :  -0.1201
B(  1-C , 24-H ) :   0.5037 B(  2-C ,  3-C ) :   1.1165 B(  2-C ,  4-C ) :  -0.1693
B(  2-C ,  5-C ) :  -0.1910 B(  2-C ,  6-C ) :   0.3076 B(  2-C , 23-H ) :   0.5679
B(  3-C ,  4-C ) :   1.0371 B(  3-C ,  5-C ) :  -0.1001 B(  3-C , 21-H ) :  -0.1355
B(  3-C , 22-H ) :   0.5600 B(  3-C , 25-H ) :  -0.1167 B(  4-C ,  5-C ) :  -0.1917
B(  4-C ,  6-C ) :   0.3105 B(  4-C , 21-H ) :   2.0028 B(  4-C , 22-H ) :  -0.1330
B(  5-C ,  6-C ) :  -0.4733 B(  5-C ,  7-C ) :   0.4701 B(  5-C , 21-H ) :  -0.2912
B(  5-C , 22-H ) :   0.1603 B(  5-C , 23-H ) :  -0.1013 B(  5-C , 24-H ) :   0.1245
B(  5-C , 25-H ) :  -0.2920 B(  6-C ,  9-C ) :  -0.1116 B(  6-C , 11-C ) :   0.5317
B(  6-C , 12-H ) :  -0.1063 B(  6-C , 13-H ) :  -0.1125 B(  6-C , 20-H ) :  -0.6242
B(  6-C , 21-H ) :  -0.3280 B(  6-C , 25-H ) :  -0.3080 B(  7-C ,  8-C ) :   0.6223
B(  7-C ,  9-C ) :   0.1402 B(  7-C , 11-C ) :  -0.1505 B(  7-C , 18-H ) :  -0.1031
B(  7-C , 19-H ) :  -0.1595 B(  7-C , 20-H ) :   1.8620 B(  8-C ,  9-C ) :   0.9110
B(  8-C , 10-C ) :   0.1116 B(  8-C , 18-H ) :   1.0199 B(  8-C , 19-H ) :   1.0135
B(  8-C , 20-H ) :  -0.1566 B(  9-C , 10-C ) :   0.9220 B(  9-C , 16-H ) :   0.9413
B(  9-C , 17-H ) :   1.0167 B( 10-C , 11-C ) :   0.9376 B( 10-C , 14-H ) :   0.9642
B( 10-C , 15-H ) :   1.0488 B( 11-C , 12-H ) :   1.0070 B( 11-C , 13-H ) :   0.9963
B( 21-H , 25-H ) :   0.2750

Dispersion correction           -0.009459960
FINAL SINGLE POINT ENERGY      -465.588232342017

DIPOLE MOMENT
-------------

Method             : SCF
Type of density    : Electron Density
Multiplicity       :   1
Irrep              :   0
Energy             :  -465.5787723822044768 Eh
Relativity type    :
Basis              : AO
                                X                 Y                 Z
Electronic contribution:      8.874513311      -1.029339320       0.288125458
Nuclear contribution   :     -9.297439936       1.076513750      -0.312023061
                        -----------------------------------------
Total Dipole Moment    :     -0.422926625       0.047174430      -0.023897603
                        -----------------------------------------
Magnitude (a.u.)       :      0.426219958
Magnitude (Debye)      :      1.083365037

Rotational constants in cm-1:             0.085540             0.017249             0.015002
Rotational constants in MHz :          2564.428727           517.115238           449.743228

                             ****ORCA TERMINATED NORMALLY****
TOTAL RUN TIME: 0 days 0 hours 12 minutes 29 seconds 887 msec
