                         Program Version 6.0.0  -   RELEASE  -
|  1> !r2SCANh aug-cc-pVTZ d3 TightSCF SlowConv RIJCOSX defgrid2
|  2>
|  3> %pal
|  4> nprocs 4
|  5> end
|  6>
|  7> %scf
|  8> MaxIter 1500
|  9> end
| 10>
| 11> %maxcore 3000
| 12>
| 13> !CPCM
| 14> %cpcm smd true
| 15> SMDsolvent "MeCN"
| 16> surfacetype gepol_ses
| 17> rsolv 2.19
| 18> end
| 19>
| 20> * xyz 1 2
| 21> C           1.56411298308256     -1.23948514477004     -0.10418100456342
| 22> C           2.94368174819201     -1.22399346873146     -0.08222881875616
| 23> C           3.62829509556698     -0.00527124649099      0.03533216996641
| 24> C           2.91690679987594      1.20436209520410      0.12189533623917
| 25> C           1.53837367111152      1.19695452226545      0.08354541546876
| 26> C           0.81270320076294     -0.02581622100353     -0.02471147709908
| 27> C          -0.62456099600129     -0.00774337256640     -0.04364594026659
| 28> C          -1.35469923195748     -1.19559169113903      0.09103295930174
| 29> C          -2.82277389645953     -1.26777692582385      0.16984319084975
| 30> C          -3.52145036714036      0.07542391320474      0.33030984445232
| 31> C          -2.84421744986526      1.11928751618814     -0.54346013749953
| 32> C          -1.37724631745571      1.28864519852577     -0.15684571320763
| 33> H          -0.86941817273049      1.94978262536238     -0.87811192857259
| 34> H          -1.30963007910482      1.80378079157142      0.82358949269975
| 35> H          -3.35155550657584      2.09318614428475     -0.45769951109418
| 36> H          -2.91426747189626      0.82232909406415     -1.60637738831724
| 37> H          -4.58799893909126     -0.02529210685066      0.07520987112053
| 38> H          -3.47978220021016      0.38792054597581      1.38967757724746
| 39> H          -3.14919539400669     -1.77633387981961     -0.76848551187315
| 40> H          -3.10223657823725     -1.99716471247534      0.95556557069623
| 41> H          -0.82292218871793     -2.14995476101911      0.14728310793351
| 42> H           1.00142564161039      2.14381086727947      0.15925446288599
| 43> H           3.45702786598241      2.14958081367639      0.21918826417843
| 44> H           4.72206867248084      0.00454899918573      0.05884230889501
| 45> H           3.50197914639113     -2.16035785555081     -0.15869714710684
| 46> H           1.05904956439360     -2.20048274054750     -0.21144959357865
| 47> *
| 48>
| 49>                          ****END OF INPUT****

CARTESIAN COORDINATES (ANGSTROEM)
---------------------------------
  C      1.564113   -1.239485   -0.104181
  C      2.943682   -1.223993   -0.082229
  C      3.628295   -0.005271    0.035332
  C      2.916907    1.204362    0.121895
  C      1.538374    1.196955    0.083545
  C      0.812703   -0.025816   -0.024711
  C     -0.624561   -0.007743   -0.043646
  C     -1.354699   -1.195592    0.091033
  C     -2.822774   -1.267777    0.169843
  C     -3.521450    0.075424    0.330310
  C     -2.844217    1.119288   -0.543460
  C     -1.377246    1.288645   -0.156846
  H     -0.869418    1.949783   -0.878112
  H     -1.309630    1.803781    0.823589
  H     -3.351556    2.093186   -0.457700
  H     -2.914267    0.822329   -1.606377
  H     -4.587999   -0.025292    0.075210
  H     -3.479782    0.387921    1.389678
  H     -3.149195   -1.776334   -0.768486
  H     -3.102237   -1.997165    0.955566
  H     -0.822922   -2.149955    0.147283
  H      1.001426    2.143811    0.159254
  H      3.457028    2.149581    0.219188
  H      4.722069    0.004549    0.058842
  H      3.501979   -2.160358   -0.158697
  H      1.059050   -2.200483   -0.211450

 Total Charge           Charge          ....    1
 Multiplicity           Mult            ....    2
 Number of Electrons    NEL             ....   85
 Basis Dimension        Dim             ....  874

ORBITAL ENERGIES
----------------
                 SPIN UP ORBITALS
  NO   OCC          E(Eh)            E(eV)
   0   1.0000     -10.235233      -278.5148
   1   1.0000     -10.232071      -278.4288
   2   1.0000     -10.217914      -278.0436
   3   1.0000     -10.202261      -277.6176
   4   1.0000     -10.200521      -277.5703
   5   1.0000     -10.195819      -277.4424
   6   1.0000     -10.186480      -277.1882
   7   1.0000     -10.184321      -277.1295
   8   1.0000     -10.178469      -276.9702
   9   1.0000     -10.175304      -276.8841
  10   1.0000     -10.159518      -276.4545
  11   1.0000     -10.159019      -276.4410
  12   1.0000      -0.904773       -24.6201
  13   1.0000      -0.869925       -23.6719
  14   1.0000      -0.805108       -21.9081
  15   1.0000      -0.781644       -21.2696
  16   1.0000      -0.768678       -20.9168
  17   1.0000      -0.746792       -20.3212
  18   1.0000      -0.656011       -17.8510
  19   1.0000      -0.648523       -17.6472
  20   1.0000      -0.610967       -16.6252
  21   1.0000      -0.600440       -16.3388
  22   1.0000      -0.545713       -14.8496
  23   1.0000      -0.529721       -14.4145
  24   1.0000      -0.494180       -13.4473
  25   1.0000      -0.477060       -12.9815
  26   1.0000      -0.471536       -12.8312
  27   1.0000      -0.447524       -12.1777
  28   1.0000      -0.437165       -11.8959
  29   1.0000      -0.436769       -11.8851
  30   1.0000      -0.427621       -11.6361
  31   1.0000      -0.412130       -11.2146
  32   1.0000      -0.410597       -11.1729
  33   1.0000      -0.396503       -10.7894
  34   1.0000      -0.386422       -10.5151
  35   1.0000      -0.364594        -9.9211
  36   1.0000      -0.353626        -9.6227
  37   1.0000      -0.329258        -8.9596
  38   1.0000      -0.325073        -8.8457
  39   1.0000      -0.318963        -8.6794
  40   1.0000      -0.314326        -8.5533
  41   1.0000      -0.283508        -7.7147
  42   1.0000      -0.260176        -7.0797
  43   0.0000      -0.105902        -2.8817
  44   0.0000      -0.048033        -1.3070
  45   0.0000      -0.012117        -0.3297
  46   0.0000       0.005609         0.1526
  47   0.0000       0.017902         0.4871

                 SPIN DOWN ORBITALS
  NO   OCC          E(Eh)            E(eV)
   0   1.0000     -10.232869      -278.4505
   1   1.0000     -10.224116      -278.2124
   2   1.0000     -10.217372      -278.0288
   3   1.0000     -10.198064      -277.5034
   4   1.0000     -10.197672      -277.4928
   5   1.0000     -10.193838      -277.3884
   6   1.0000     -10.187701      -277.2214
   7   1.0000     -10.186090      -277.1776
   8   1.0000     -10.178584      -276.9734
   9   1.0000     -10.175359      -276.8856
  10   1.0000     -10.159476      -276.4534
  11   1.0000     -10.158984      -276.4400
  12   1.0000      -0.897472       -24.4215
  13   1.0000      -0.861603       -23.4454
  14   1.0000      -0.802099       -21.8262
  15   1.0000      -0.777991       -21.1702
  16   1.0000      -0.763710       -20.7816
  17   1.0000      -0.736971       -20.0540
  18   1.0000      -0.653504       -17.7827
  19   1.0000      -0.643532       -17.5114
  20   1.0000      -0.606103       -16.4929
  21   1.0000      -0.597638       -16.2626
  22   1.0000      -0.544571       -14.8185
  23   1.0000      -0.524959       -14.2849
  24   1.0000      -0.491791       -13.3823
  25   1.0000      -0.475418       -12.9368
  26   1.0000      -0.467193       -12.7130
  27   1.0000      -0.442488       -12.0407
  28   1.0000      -0.436536       -11.8787
  29   1.0000      -0.432328       -11.7642
  30   1.0000      -0.424493       -11.5510
  31   1.0000      -0.409387       -11.1400
  32   1.0000      -0.400946       -10.9103
  33   1.0000      -0.393188       -10.6992
  34   1.0000      -0.375196       -10.2096
  35   1.0000      -0.363776        -9.8988
  36   1.0000      -0.352675        -9.5968
  37   1.0000      -0.327162        -8.9025
  38   1.0000      -0.322937        -8.7876
  39   1.0000      -0.316058        -8.6004
  40   1.0000      -0.295811        -8.0494
  41   1.0000      -0.278771        -7.5857
  42   0.0000      -0.194389        -5.2896
  43   0.0000      -0.070378        -1.9151
  44   0.0000      -0.040121        -1.0917
  45   0.0000       0.004632         0.1261
  46   0.0000       0.012397         0.3373

MULLIKEN ATOMIC CHARGES AND SPIN POPULATIONS
--------------------------------------------
   0 C :   -0.660998    0.180181
   1 C :   -0.890384   -0.128170
   2 C :   -0.107140    0.251262
   3 C :   -1.063574   -0.081090
   4 C :   -0.555634    0.100488
   5 C :    1.931778    0.084077
   6 C :    2.139996    0.115292
   7 C :   -1.106040    0.387507
   8 C :   -0.151589   -0.074062
   9 C :   -0.311311   -0.002028
  10 C :   -0.428158    0.001680
  11 C :   -0.186198    0.001328
  12 H :    0.143228   -0.001430
  13 H :    0.214003    0.015623
  14 H :    0.190586    0.001162
  15 H :    0.112831   -0.004051
  16 H :    0.221637   -0.001179
  17 H :    0.128670   -0.000533
  18 H :    0.197147    0.064981
  19 H :    0.197432    0.027748
  20 H :   -0.180773    0.038749
  21 H :   -0.206300    0.003352
  22 H :    0.536073   -0.004272
  23 H :    0.415868    0.016584
  24 H :    0.510639   -0.002144
  25 H :   -0.091790    0.008946
Sum of atomic charges         :    1.0000000

LOEWDIN ATOMIC CHARGES AND SPIN POPULATIONS
-------------------------------------------
   0 C :    0.262896    0.075658
   1 C :    0.247402    0.009014
   2 C :    0.251787    0.107608
   3 C :    0.250365    0.018425
   4 C :    0.258563    0.059103
   5 C :   -0.050004    0.077856
   6 C :    0.022945    0.150938
   7 C :    0.374883    0.253652
   8 C :    0.327348    0.080986
   9 C :    0.299976    0.003871
  10 C :    0.300658    0.002983
  11 C :    0.310682    0.027945
  12 H :   -0.128328    0.003740
  13 H :   -0.100190    0.008202
  14 H :   -0.120854    0.000319
  15 H :   -0.117098    0.000166
  16 H :   -0.122901   -0.000129
  17 H :   -0.120883    0.000661
  18 H :   -0.097733    0.025416
  19 H :   -0.107935    0.012919
  20 H :   -0.150668    0.042129
  21 H :   -0.166205    0.011923
  22 H :   -0.152181   -0.005492
  23 H :   -0.145733    0.026732
  24 H :   -0.153374   -0.008927
  25 H :   -0.173420    0.014302

  Mayer bond orders larger than 0.100000
B(  0-C ,  1-C ) :   1.1112 B(  0-C ,  2-C ) :  -0.1911 B(  0-C ,  4-C ) :  -0.9536
B(  0-C ,  5-C ) :  -0.2520 B(  0-C ,  6-C ) :   0.3673 B(  0-C , 22-H ) :   0.1019
B(  0-C , 25-H ) :   1.8837 B(  1-C ,  2-C ) :   0.9846 B(  1-C ,  3-C ) :   0.4029
B(  1-C , 21-H ) :  -0.1249 B(  1-C , 24-H ) :   0.4037 B(  1-C , 25-H ) :  -0.1805
B(  2-C ,  3-C ) :   1.0117 B(  2-C ,  4-C ) :  -0.2141 B(  2-C ,  5-C ) :  -0.2718
B(  2-C ,  6-C ) :   0.3467 B(  2-C , 21-H ) :  -0.1032 B(  2-C , 23-H ) :   0.7125
B(  2-C , 25-H ) :  -0.1022 B(  3-C ,  4-C ) :   1.0183 B(  3-C , 21-H ) :  -0.1045
B(  3-C , 22-H ) :   0.3447 B(  3-C , 25-H ) :  -0.1564 B(  4-C ,  6-C ) :   0.3800
B(  4-C ,  7-C ) :   0.1486 B(  4-C , 21-H ) :   2.0549 B(  4-C , 25-H ) :   0.1167
B(  5-C ,  7-C ) :   0.3391 B(  5-C , 21-H ) :  -0.1275 B(  6-C ,  7-C ) :  -0.7012
B(  6-C ,  9-C ) :  -0.1290 B(  6-C , 11-C ) :   0.5552 B(  6-C , 12-H ) :  -0.1287
B(  6-C , 13-H ) :  -0.1029 B(  6-C , 20-H ) :  -0.4991 B(  6-C , 21-H ) :  -0.4937
B(  6-C , 22-H ) :   0.1978 B(  6-C , 24-H ) :   0.1576 B(  6-C , 25-H ) :  -0.4608
B(  7-C ,  8-C ) :   0.5556 B(  7-C ,  9-C ) :   0.1508 B(  7-C , 11-C ) :  -0.2475
B(  7-C , 19-H ) :  -0.1397 B(  7-C , 20-H ) :   1.8509 B(  8-C ,  9-C ) :   0.9578
B(  8-C , 10-C ) :   0.1212 B(  8-C , 18-H ) :   0.9802 B(  8-C , 19-H ) :   0.9629
B(  8-C , 20-H ) :  -0.2090 B(  9-C , 10-C ) :   0.9430 B(  9-C , 16-H ) :   0.9213
B(  9-C , 17-H ) :   1.0172 B( 10-C , 11-C ) :   0.9231 B( 10-C , 14-H ) :   0.9420
B( 10-C , 15-H ) :   1.0301 B( 11-C , 12-H ) :   1.0496 B( 11-C , 13-H ) :   0.9672
B( 21-H , 25-H ) :   0.2615

Dispersion correction           -0.009464412
FINAL SINGLE POINT ENERGY      -465.383015226805

DIPOLE MOMENT
-------------

Method             : SCF
Type of density    : Electron Density
Multiplicity       :   2
Irrep              :   0
Energy             :  -465.3735508144121695 Eh
Relativity type    :
Basis              : AO
                                X                 Y                 Z
Electronic contribution:      9.124780010      -1.532758500       0.143263606
Nuclear contribution   :     -9.269537752       0.974022475      -0.092780432
                        -----------------------------------------
Total Dipole Moment    :     -0.144757743      -0.558736025       0.050483174
                        -----------------------------------------
Magnitude (a.u.)       :      0.579387004
Magnitude (Debye)      :      1.472684727

Rotational constants in cm-1:             0.084417             0.017556             0.014881
Rotational constants in MHz :          2530.764914           526.301253           446.117666

                             ****ORCA TERMINATED NORMALLY****
TOTAL RUN TIME: 0 days 0 hours 17 minutes 53 seconds 747 msec
