                         Program Version 6.0.0  -   RELEASE  -
|  1> !TPSSh aug-cc-pVTZ d3 TightSCF SlowConv RIJCOSX defgrid2
|  2>
|  3> %pal
|  4> nprocs 4
|  5> end
|  6>
|  7> %scf
|  8> MaxIter 1500
|  9> end
| 10>
| 11> %maxcore 3000
| 12>
| 13> !CPCM
| 14> %cpcm smd true
| 15> SMDsolvent "MeCN"
| 16> surfacetype gepol_ses
| 17> rsolv 2.19
| 18> end
| 19>
| 20> * xyz 0 1
| 21>   C           0.41599319251032     -1.69346177862022     -0.02279161454558
| 22>   C          -0.98199729558990     -1.81472676429341     -0.05134821794403
| 23>   C          -1.70677603729443     -0.64308652071241     -0.08326300415314
| 24>   C          -1.07495769550450      0.60196976211576     -0.08130065571313
| 25>   C           0.29269190626036      0.73274812090553     -0.04930153158760
| 26>   C           1.06792223663687     -0.45226147551338     -0.02238323387356
| 27>   C           2.53306012033092     -0.42784097336228      0.00411549390745
| 28>   C           3.33599029031163      0.64787454860086     -0.01298712184471
| 29>   C           4.82698252758222      0.59436334411775      0.01761658566321
| 30>   H           5.19519744878890     -0.44486528089433      0.05467264909477
| 31>   H           5.26493429112435      1.08145794661971     -0.87426846583011
| 32>   H           5.23044002906813      1.13215001785477      0.89657522514024
| 33>   H           2.89219341939334      1.65177321714680     -0.05310300701833
| 34>   H           3.00616156242134     -1.41849503169999      0.04140787797653
| 35>   H           0.75060774881743      1.72311804458948     -0.04152460092806
| 36>   O          -2.02238582974935      1.57759788099539     -0.08083816246866
| 37>   C          -3.25372937520391      0.92161898008569     -0.29920279195714
| 38>   H          -3.58643890672075      1.09093447235186     -1.34427577812255
| 39>   H          -4.00651814330382      1.30024105404657      0.41140327759572
| 40>   O          -3.05288326673628     -0.46068315840969     -0.08496008668725
| 41>   H          -1.47569728947849     -2.78849336669007     -0.04656446685497
| 42>   H           1.02272506633562     -2.60351753923440     -0.00236886984910
| 43> *
| 44>
| 45>                          ****END OF INPUT****

CARTESIAN COORDINATES (ANGSTROEM)
---------------------------------
  C      0.415993   -1.693462   -0.022792
  C     -0.981997   -1.814727   -0.051348
  C     -1.706776   -0.643087   -0.083263
  C     -1.074958    0.601970   -0.081301
  C      0.292692    0.732748   -0.049302
  C      1.067922   -0.452261   -0.022383
  C      2.533060   -0.427841    0.004115
  C      3.335990    0.647875   -0.012987
  C      4.826983    0.594363    0.017617
  H      5.195197   -0.444865    0.054673
  H      5.264934    1.081458   -0.874268
  H      5.230440    1.132150    0.896575
  H      2.892193    1.651773   -0.053103
  H      3.006162   -1.418495    0.041408
  H      0.750608    1.723118   -0.041525
  O     -2.022386    1.577598   -0.080838
  C     -3.253729    0.921619   -0.299203
  H     -3.586439    1.090934   -1.344276
  H     -4.006518    1.300241    0.411403
  O     -3.052883   -0.460683   -0.084960
  H     -1.475697   -2.788493   -0.046564
  H      1.022725   -2.603518   -0.002369

 Total Charge           Charge          ....    0
 Multiplicity           Mult            ....    1
 Number of Electrons    NEL             ....   86
 Basis Dimension        Dim             ....  782

ORBITAL ENERGIES
----------------

  NO   OCC          E(Eh)            E(eV)
   0   2.0000     -19.101034      -519.7655
   1   2.0000     -19.100227      -519.7436
   2   2.0000     -10.225039      -278.2375
   3   2.0000     -10.175911      -276.9006
   4   2.0000     -10.174904      -276.8732
   5   2.0000     -10.126867      -275.5661
   6   2.0000     -10.121664      -275.4245
   7   2.0000     -10.119951      -275.3779
   8   2.0000     -10.116503      -275.2840
   9   2.0000     -10.112777      -275.1827
  10   2.0000     -10.111038      -275.1353
  11   2.0000     -10.106106      -275.0011
  12   2.0000      -1.114847       -30.3365
  13   2.0000      -1.022330       -27.8190
  14   2.0000      -0.844465       -22.9791
  15   2.0000      -0.780291       -21.2328
  16   2.0000      -0.739284       -20.1170
  17   2.0000      -0.732917       -19.9437
  18   2.0000      -0.675223       -18.3738
  19   2.0000      -0.641258       -17.4495
  20   2.0000      -0.607606       -16.5338
  21   2.0000      -0.596319       -16.2267
  22   2.0000      -0.536828       -14.6078
  23   2.0000      -0.505908       -13.7664
  24   2.0000      -0.504394       -13.7253
  25   2.0000      -0.496823       -13.5192
  26   2.0000      -0.471608       -12.8331
  27   2.0000      -0.427203       -11.6248
  28   2.0000      -0.425170       -11.5695
  29   2.0000      -0.412297       -11.2192
  30   2.0000      -0.390497       -10.6260
  31   2.0000      -0.383681       -10.4405
  32   2.0000      -0.378842       -10.3088
  33   2.0000      -0.375127       -10.2077
  34   2.0000      -0.372771       -10.1436
  35   2.0000      -0.352677        -9.5968
  36   2.0000      -0.345821        -9.4103
  37   2.0000      -0.328580        -8.9411
  38   2.0000      -0.323496        -8.8028
  39   2.0000      -0.319915        -8.7053
  40   2.0000      -0.260824        -7.0974
  41   2.0000      -0.228875        -6.2280
  42   2.0000      -0.189471        -5.1558
  43   0.0000      -0.044725        -1.2170
  44   0.0000      -0.017563        -0.4779
  45   0.0000      -0.003223        -0.0877
  46   0.0000       0.005233         0.1424
  47   0.0000       0.010030         0.2729

MULLIKEN ATOMIC CHARGES
-----------------------
   0 C :   -0.764937
   1 C :   -0.446934
   2 C :    0.752099
   3 C :    0.908302
   4 C :   -0.403103
   5 C :    1.131300
   6 C :   -0.095970
   7 C :   -0.313126
   8 C :   -0.401809
   9 H :    0.124938
  10 H :    0.121948
  11 H :    0.126097
  12 H :    0.040323
  13 H :   -0.022373
  14 H :   -0.163341
  15 O :   -0.747519
  16 C :    0.235089
  17 H :    0.119973
  18 H :    0.139520
  19 O :   -0.772032
  20 H :    0.346294
  21 H :    0.085260
Sum of atomic charges:    0.0000000

LOEWDIN ATOMIC CHARGES
----------------------
   0 C :    0.186409
   1 C :    0.224635
   2 C :   -0.407760
   3 C :   -0.400825
   4 C :    0.233998
   5 C :   -0.162997
   6 C :    0.190729
   7 C :    0.194980
   8 C :    0.544646
   9 H :   -0.174924
  10 H :   -0.165737
  11 H :   -0.165694
  12 H :   -0.186623
  13 H :   -0.185877
  14 H :   -0.177566
  15 O :    0.621127
  16 C :   -0.161098
  17 H :   -0.139509
  18 H :   -0.145778
  19 O :    0.619275
  20 H :   -0.166884
  21 H :   -0.174524

  Mayer bond orders larger than 0.100000
B(  0-C ,  1-C ) :   1.4083 B(  0-C ,  2-C ) :  -0.1777 B(  0-C ,  4-C ) :  -0.1337
B(  0-C ,  5-C ) :   0.6256 B(  0-C ,  6-C ) :  -0.1062 B(  0-C ,  7-C ) :   0.2426
B(  0-C , 21-H ) :   1.0381 B(  1-C ,  2-C ) :   0.8048 B(  1-C ,  4-C ) :  -0.1017
B(  1-C , 20-H ) :   0.5545 B(  2-C ,  3-C ) :   1.0811 B(  2-C , 14-H ) :   0.1190
B(  2-C , 15-O ) :   0.1524 B(  2-C , 20-H ) :   0.1431 B(  3-C ,  4-C ) :   0.5280
B(  3-C ,  5-C ) :   0.2724 B(  3-C , 14-H ) :  -0.2200 B(  3-C , 15-O ) :  -0.1243
B(  3-C , 19-O ) :   0.1905 B(  4-C ,  5-C ) :   0.6138 B(  4-C , 12-H ) :  -0.1420
B(  4-C , 14-H ) :   1.3457 B(  4-C , 15-O ) :   0.2850 B(  5-C ,  6-C ) :   0.1115
B(  5-C ,  7-C ) :  -0.2404 B(  5-C , 12-H ) :  -0.1801 B(  5-C , 14-H ) :  -0.1863
B(  6-C ,  7-C ) :   1.0300 B(  6-C , 13-H ) :   1.2068 B(  7-C ,  8-C ) :   0.9912
B(  7-C ,  9-H ) :   0.1124 B(  7-C , 12-H ) :   1.3009 B(  8-C ,  9-H ) :   0.9390
B(  8-C , 10-H ) :   0.9843 B(  8-C , 11-H ) :   0.9852 B( 14-H , 15-O ) :   0.1264
B( 15-O , 16-C ) :   0.9026 B( 16-C , 17-H ) :   0.9316 B( 16-C , 18-H ) :   0.9540
B( 16-C , 19-O ) :   0.8973

Dispersion correction           -0.026429699
FINAL SINGLE POINT ENERGY      -537.759719453000

DIPOLE MOMENT
-------------

Method             : SCF
Type of density    : Electron Density
Multiplicity       :   1
Irrep              :   0
Energy             :  -537.7332897539505439 Eh
Relativity type    :
Basis              : AO
                                X                 Y                 Z
Electronic contribution:    -13.610509837      -0.466060429       0.110174491
Nuclear contribution   :     13.408506820       0.685068586      -0.272537228
                        -----------------------------------------
Total Dipole Moment    :     -0.202003017       0.219008157      -0.162362737
                        -----------------------------------------
Magnitude (a.u.)       :      0.339310256
Magnitude (Debye)      :      0.862458131

Rotational constants in cm-1:             0.089233             0.016100             0.013721
Rotational constants in MHz :          2675.143581           482.663889           411.333800

                             ****ORCA TERMINATED NORMALLY****
TOTAL RUN TIME: 0 days 0 hours 8 minutes 35 seconds 274 msec
