                         Program Version 6.0.0  -   RELEASE  -
|  1> !r2SCANh aug-cc-pVTZ d3 TightSCF SlowConv RIJCOSX defgrid2
|  2>
|  3> %pal
|  4> nprocs 4
|  5> end
|  6>
|  7> %scf
|  8> MaxIter 1500
|  9> end
| 10>
| 11> %maxcore 3000
| 12>
| 13> !CPCM
| 14> %cpcm smd true
| 15> SMDsolvent "MeCN"
| 16> surfacetype gepol_ses
| 17> rsolv 2.19
| 18> end
| 19>
| 20> * xyz 1 2
| 21> C          -1.88926886591052     -0.71829471042902     -0.00000151658975
| 22> C          -0.69976165931068     -1.41947642476781     -0.00004682086503
| 23> C           0.52546620787527     -0.73616642455340     -0.00005070921479
| 24> C           1.80539513424131     -1.47669107886068     -0.00023735663381
| 25> H           2.41895885184776     -1.20629923183368      0.88130420897190
| 26> H           1.65030845286960     -2.56505007458612      0.00054431743935
| 27> H           2.41781413244718     -1.20753960674201     -0.88298442839847
| 28> C           0.52547898558837      0.73614990429939      0.00000366497278
| 29> C           1.80542537047235      1.47665380279544      0.00015411128337
| 30> H           2.41897294335330      1.20625813469298     -0.88139556544038
| 31> H           1.65034488477417      2.56501332425354     -0.00063843565960
| 32> H           2.41785215045554      1.20751683668618      0.88290259762033
| 33> C          -0.69973036540407      1.41946691144153      0.00005351354497
| 34> C          -1.88925441678624      0.71829392037224      0.00005440335703
| 35> H          -2.84458396121263      1.25172450263367      0.00010059257370
| 36> H          -0.70436141297793      2.51237392702987      0.00009399193885
| 37> H          -0.70439462134719     -2.51238326028565     -0.00008450613426
| 38> H          -2.84460951097560     -1.25170515214647     -0.00000996276619
| 39> *
| 40>
| 41>                          ****END OF INPUT****

CARTESIAN COORDINATES (ANGSTROEM)
---------------------------------
  C     -1.889269   -0.718295   -0.000002
  C     -0.699762   -1.419476   -0.000047
  C      0.525466   -0.736166   -0.000051
  C      1.805395   -1.476691   -0.000237
  H      2.418959   -1.206299    0.881304
  H      1.650308   -2.565050    0.000544
  H      2.417814   -1.207540   -0.882984
  C      0.525479    0.736150    0.000004
  C      1.805425    1.476654    0.000154
  H      2.418973    1.206258   -0.881396
  H      1.650345    2.565013   -0.000638
  H      2.417852    1.207517    0.882903
  C     -0.699730    1.419467    0.000054
  C     -1.889254    0.718294    0.000054
  H     -2.844584    1.251725    0.000101
  H     -0.704361    2.512374    0.000094
  H     -0.704395   -2.512383   -0.000085
  H     -2.844610   -1.251705   -0.000010

 Total Charge           Charge          ....    1
 Multiplicity           Mult            ....    2
 Number of Electrons    NEL             ....   57
 Basis Dimension        Dim             ....  598

ORBITAL ENERGIES
----------------
                 SPIN UP ORBITALS
  NO   OCC          E(Eh)            E(eV)
   0   1.0000     -10.247354      -278.8447
   1   1.0000     -10.247059      -278.8367
   2   1.0000     -10.223745      -278.2022
   3   1.0000     -10.223357      -278.1917
   4   1.0000     -10.194355      -277.4025
   5   1.0000     -10.194333      -277.4019
   6   1.0000     -10.173892      -276.8457
   7   1.0000     -10.173806      -276.8433
   8   1.0000      -0.913506       -24.8578
   9   1.0000      -0.825823       -22.4718
  10   1.0000      -0.809848       -22.0371
  11   1.0000      -0.732411       -19.9299
  12   1.0000      -0.702859       -19.1258
  13   1.0000      -0.628379       -17.0990
  14   1.0000      -0.610641       -16.6164
  15   1.0000      -0.525185       -14.2910
  16   1.0000      -0.505710       -13.7611
  17   1.0000      -0.472838       -12.8666
  18   1.0000      -0.463989       -12.6258
  19   1.0000      -0.442876       -12.0513
  20   1.0000      -0.429430       -11.6854
  21   1.0000      -0.412756       -11.2317
  22   1.0000      -0.399669       -10.8755
  23   1.0000      -0.399555       -10.8724
  24   1.0000      -0.389788       -10.6067
  25   1.0000      -0.363662        -9.8957
  26   1.0000      -0.359268        -9.7762
  27   1.0000      -0.294644        -8.0177
  28   1.0000      -0.290836        -7.9141
  29   0.0000      -0.093430        -2.5424
  30   0.0000      -0.056762        -1.5446
  31   0.0000       0.007397         0.2013
  32   0.0000       0.019540         0.5317
  33   0.0000       0.023823         0.6483

                 SPIN DOWN ORBITALS
  NO   OCC          E(Eh)            E(eV)
   0   1.0000     -10.241384      -278.6822
   1   1.0000     -10.241107      -278.6747
   2   1.0000     -10.219263      -278.0803
   3   1.0000     -10.218892      -278.0702
   4   1.0000     -10.196489      -277.4606
   5   1.0000     -10.196466      -277.4600
   6   1.0000     -10.174012      -276.8489
   7   1.0000     -10.173925      -276.8466
   8   1.0000      -0.900650       -24.5079
   9   1.0000      -0.810812       -22.0633
  10   1.0000      -0.806155       -21.9366
  11   1.0000      -0.730230       -19.8706
  12   1.0000      -0.695070       -18.9138
  13   1.0000      -0.622903       -16.9501
  14   1.0000      -0.602008       -16.3815
  15   1.0000      -0.523093       -14.2341
  16   1.0000      -0.503443       -13.6994
  17   1.0000      -0.467922       -12.7328
  18   1.0000      -0.442845       -12.0504
  19   1.0000      -0.442646       -12.0450
  20   1.0000      -0.426233       -11.5984
  21   1.0000      -0.404542       -11.0081
  22   1.0000      -0.399025       -10.8580
  23   1.0000      -0.397927       -10.8282
  24   1.0000      -0.366250        -9.9662
  25   1.0000      -0.361911        -9.8481
  26   1.0000      -0.356636        -9.7046
  27   1.0000      -0.286581        -7.7983
  28   0.0000      -0.216715        -5.8971
  29   0.0000      -0.043416        -1.1814
  30   0.0000      -0.042787        -1.1643
  31   0.0000       0.008919         0.2427
  32   0.0000       0.021557         0.5866

MULLIKEN ATOMIC CHARGES AND SPIN POPULATIONS
--------------------------------------------
   0 C :   -0.172464    0.251062
   1 C :   -0.901804   -0.174738
   2 C :    1.091107    0.401166
   3 C :   -0.665270   -0.063248
   4 H :    0.254882    0.038652
   5 H :    0.076143   -0.006925
   6 H :    0.255669    0.038764
   7 C :    1.091273    0.401092
   8 C :   -0.663672   -0.063172
   9 H :    0.255688    0.038639
  10 H :    0.075662   -0.006925
  11 H :    0.256028    0.038750
  12 C :   -0.901691   -0.174572
  13 C :   -0.173315    0.250620
  14 H :    0.622814    0.029964
  15 H :   -0.061847   -0.014586
  16 H :   -0.064959   -0.014596
  17 H :    0.625759    0.030053
Sum of atomic charges         :    1.0000000

LOEWDIN ATOMIC CHARGES AND SPIN POPULATIONS
-------------------------------------------
   0 C :    0.295956    0.160249
   1 C :    0.278277    0.028950
   2 C :   -0.018995    0.201171
   3 C :    0.626867    0.058894
   4 H :   -0.129452    0.015096
   5 H :   -0.145303    0.001255
   6 H :   -0.129298    0.015124
   7 C :   -0.018893    0.201174
   8 C :    0.626976    0.058902
   9 H :   -0.129342    0.015103
  10 H :   -0.145346    0.001257
  11 H :   -0.129317    0.015127
  12 C :    0.278292    0.028992
  13 C :    0.295962    0.160128
  14 H :   -0.131918    0.030277
  15 H :   -0.146282   -0.010999
  16 H :   -0.146278   -0.011016
  17 H :   -0.131906    0.030318

  Mayer bond orders larger than 0.100000
B(  0-C ,  1-C ) :   1.0273 B(  0-C ,  2-C ) :   0.1422 B(  0-C ,  7-C ) :  -0.1394
B(  0-C , 13-C ) :   0.8240 B(  0-C , 17-H ) :   0.4122 B(  1-C ,  2-C ) :   0.3679
B(  1-C ,  7-C ) :  -0.1084 B(  1-C , 16-H ) :   1.5154 B(  1-C , 17-H ) :  -0.1410
B(  2-C ,  3-C ) :   0.3080 B(  2-C ,  7-C ) :   1.0953 B(  2-C ,  8-C ) :   0.1093
B(  2-C , 12-C ) :  -0.1071 B(  2-C , 13-C ) :  -0.1386 B(  2-C , 16-H ) :  -0.1066
B(  3-C ,  4-H ) :   0.9396 B(  3-C ,  5-H ) :   1.1090 B(  3-C ,  6-H ) :   0.9381
B(  3-C ,  7-C ) :   0.1097 B(  7-C ,  8-C ) :   0.3091 B(  7-C , 12-C ) :   0.3675
B(  7-C , 13-C ) :   0.1389 B(  7-C , 15-H ) :  -0.1045 B(  8-C ,  9-H ) :   0.9378
B(  8-C , 10-H ) :   1.1102 B(  8-C , 11-H ) :   0.9375 B( 12-C , 13-C ) :   1.0302
B( 12-C , 14-H ) :  -0.1401 B( 12-C , 15-H ) :   1.5093 B( 13-C , 14-H ) :   0.4176

Dispersion correction           -0.005523259
FINAL SINGLE POINT ENERGY      -310.575574357084

DIPOLE MOMENT
-------------

Method             : SCF
Type of density    : Electron Density
Multiplicity       :   2
Irrep              :   0
Energy             :  -310.5700510983477898 Eh
Relativity type    :
Basis              : AO
                                X                 Y                 Z
Electronic contribution:     -5.584141821       0.000019618      -0.000321308
Nuclear contribution   :      5.537517534      -0.000008895      -0.000066911
                        -----------------------------------------
Total Dipole Moment    :     -0.046624287       0.000010723      -0.000388220
                        -----------------------------------------
Magnitude (a.u.)       :      0.046625905
Magnitude (Debye)      :      0.118513632

Rotational constants in cm-1:             0.102569             0.072675             0.043220
Rotational constants in MHz :          3074.941965          2178.738916          1295.716867

                             ****ORCA TERMINATED NORMALLY****
TOTAL RUN TIME: 0 days 0 hours 7 minutes 37 seconds 371 msec
