                         Program Version 6.0.0  -   RELEASE  -
|  1> !TPSSh aug-cc-pVTZ d3 TightSCF SlowConv RIJCOSX defgrid2
|  2>
|  3> %pal
|  4> nprocs 15
|  5> end
|  6>
|  7> %scf
|  8> MaxIter 1500
|  9> end
| 10>
| 11> %maxcore 3500
| 12>
| 13> !CPCM
| 14> %cpcm smd true
| 15> SMDsolvent "WATER"
| 16> surfacetype gepol_ses
| 17> rsolv 1.40
| 18> end
| 19>
| 20> * xyz 0 1
| 21> C          -0.00000020978988      0.00000073694249     -0.05069100410522
| 22> C          -1.20906788297771     -0.37099775736022      0.72498240348112
| 23> C           1.20906839531154      0.37099639744085      0.72498233629225
| 24> H          -2.08965714718270     -0.64109787483542      0.13413739306601
| 25> H           2.08965862753959      0.64109516807399      0.13413744999163
| 26> C          -1.20906829311347     -0.37099671339690      2.06767561532039
| 27> C           1.20906814538816      0.37099731197670      2.06767588420582
| 28> H          -2.08965863090342     -0.64109537543156      2.65852032753444
| 29> H           2.08965866999056      0.64109660483906      2.65852006555801
| 30> C          -0.00000017070001      0.00000032151215      2.84334909378969
| 31> O          -0.00000037912842     -0.00000048181393      4.05737768473263
| 32> O          -0.00000112443423      0.00000166205280     -1.26471924986679
| 33> *
| 34>
| 35>                          ****END OF INPUT****

CARTESIAN COORDINATES (ANGSTROEM)
---------------------------------
  C     -0.000000    0.000001   -0.050691
  C     -1.209068   -0.370998    0.724982
  C      1.209068    0.370996    0.724982
  H     -2.089657   -0.641098    0.134137
  H      2.089659    0.641095    0.134137
  C     -1.209068   -0.370997    2.067676
  C      1.209068    0.370997    2.067676
  H     -2.089659   -0.641095    2.658520
  H      2.089659    0.641097    2.658520
  C     -0.000000    0.000000    2.843349
  O     -0.000000   -0.000000    4.057378
  O     -0.000001    0.000002   -1.264719

 Total Charge           Charge          ....    0
 Multiplicity           Mult            ....    1
 Number of Electrons    NEL             ....   56
 Basis Dimension        Dim             ....  460

ORBITAL ENERGIES
----------------

  NO   OCC          E(Eh)            E(eV)
   0   2.0000     -19.072767      -518.9964
   1   2.0000     -19.072764      -518.9963
   2   2.0000     -10.222194      -278.1600
   3   2.0000     -10.222178      -278.1596
   4   2.0000     -10.148172      -276.1458
   5   2.0000     -10.148157      -276.1454
   6   2.0000     -10.147425      -276.1255
   7   2.0000     -10.147412      -276.1251
   8   2.0000      -1.049076       -28.5468
   9   2.0000      -1.047463       -28.5029
  10   2.0000      -0.834083       -22.6965
  11   2.0000      -0.763345       -20.7717
  12   2.0000      -0.686063       -18.6687
  13   2.0000      -0.615805       -16.7569
  14   2.0000      -0.580313       -15.7911
  15   2.0000      -0.493133       -13.4188
  16   2.0000      -0.490375       -13.3438
  17   2.0000      -0.467391       -12.7183
  18   2.0000      -0.431949       -11.7539
  19   2.0000      -0.430678       -11.7193
  20   2.0000      -0.424159       -11.5420
  21   2.0000      -0.404636       -11.0107
  22   2.0000      -0.404207       -10.9990
  23   2.0000      -0.379265       -10.3203
  24   2.0000      -0.298900        -8.1335
  25   2.0000      -0.283670        -7.7191
  26   2.0000      -0.270946        -7.3728
  27   2.0000      -0.259175        -7.0525
  28   0.0000      -0.144651        -3.9362
  29   0.0000      -0.037344        -1.0162
  30   0.0000      -0.011318        -0.3080
  31   0.0000       0.001231         0.0335
  32   0.0000       0.014502         0.3946

MULLIKEN ATOMIC CHARGES
-----------------------
   0 C :    1.103119
   1 C :   -0.402199
   2 C :   -0.402333
   3 H :    0.356117
   4 H :    0.356146
   5 C :   -0.401986
   6 C :   -0.402375
   7 H :    0.356105
   8 H :    0.356088
   9 C :    1.102832
  10 O :   -1.010738
  11 O :   -1.010776
Sum of atomic charges:    0.0000000

LOEWDIN ATOMIC CHARGES
----------------------
   0 C :   -0.579743
   1 C :    0.224405
   2 C :    0.224412
   3 H :   -0.166183
   4 H :   -0.166175
   5 C :    0.224413
   6 C :    0.224406
   7 H :   -0.166175
   8 H :   -0.166183
   9 C :   -0.579743
  10 O :    0.463282
  11 O :    0.463283

  Mayer bond orders larger than 0.100000
B(  0-C ,  1-C ) :   0.9598 B(  0-C ,  2-C ) :   0.9599 B(  0-C , 11-O ) :   0.4425
B(  1-C ,  2-C ) :   0.2577 B(  1-C ,  3-H ) :   0.5486 B(  1-C ,  5-C ) :   1.8899
B(  1-C ,  6-C ) :  -0.1268 B(  1-C , 11-O ) :   0.1849 B(  2-C ,  4-H ) :   0.5486
B(  2-C ,  5-C ) :  -0.1267 B(  2-C ,  6-C ) :   1.8900 B(  2-C , 11-O ) :   0.1851
B(  5-C ,  6-C ) :   0.2577 B(  5-C ,  7-H ) :   0.5487 B(  5-C ,  9-C ) :   0.9600
B(  5-C , 10-O ) :   0.1848 B(  6-C ,  8-H ) :   0.5486 B(  6-C ,  9-C ) :   0.9600
B(  6-C , 10-O ) :   0.1851 B(  9-C , 10-O ) :   0.4430

Dispersion correction           -0.013903031
FINAL SINGLE POINT ENERGY      -381.629439701791

DIPOLE MOMENT
-------------

Method             : SCF
Type of density    : Electron Density
Multiplicity       :   1
Irrep              :   0
Energy             :  -381.6155366708087513 Eh
Relativity type    :
Basis              : AO
                                X                 Y                 Z
Electronic contribution:     -0.000000907       0.000001510      -0.000000754
Nuclear contribution   :      0.000002198      -0.000002102      -0.000001065
                        -----------------------------------------
Total Dipole Moment    :      0.000001291      -0.000000592      -0.000001818
                        -----------------------------------------
Magnitude (a.u.)       :      0.000002307
Magnitude (Debye)      :      0.000005864

Rotational constants in cm-1:             0.175401             0.055278             0.042032
Rotational constants in MHz :          5258.386443          1657.201068          1260.081464

                             ****ORCA TERMINATED NORMALLY****
TOTAL RUN TIME: 0 days 0 hours 2 minutes 4 seconds 449 msec
