                         Program Version 6.0.0  -   RELEASE  -
|  1> !TPSSh aug-cc-pVTZ d3 TightSCF SlowConv RIJCOSX defgrid2
|  2>
|  3> %pal
|  4> nprocs 6
|  5> end
|  6>
|  7> %scf
|  8> MaxIter 1500
|  9> end
| 10>
| 11> %maxcore 3000
| 12>
| 13> !CPCM
| 14> %cpcm smd true
| 15> SMDsolvent "MeCN"
| 16> surfacetype gepol_ses
| 17> rsolv 2.19
| 18> end
| 19>
| 20> * xyz -1 2
| 21>   C          -3.62984747030359      2.10634854089890      0.29413366187786
| 22>   C          -4.88521656793814      1.52460279264563      0.21285194664948
| 23>   C          -2.43996070251224      1.35928996872449      0.08422922937252
| 24>   C          -2.61096888777262     -0.00171874484877     -0.27802191885602
| 25>   C          -3.87287251644746     -0.57850198655770     -0.36904469903670
| 26>   C          -5.03023873609438      0.16696438667983     -0.10988269549484
| 27>   C          -1.16948079167151      2.09256049707431      0.16164767275919
| 28>   C           0.12067423933497      1.40594735978097      0.30426152268307
| 29>   C           1.28964189965584      2.16414147627999      0.02630190894131
| 30>   C           2.56066514539573      1.62761624229261      0.15812903251074
| 31>   C           2.74361326089362      0.30916965549547      0.60191698925079
| 32>   C           1.60721306175648     -0.44185421529682      0.92902893717985
| 33>   C           0.32976744930311      0.08871154082537      0.78825579984698
| 34>   O          -1.18787359702741      3.35479483613606      0.10344354720181
| 35>   H          -3.95752568777400     -1.63142375583986     -0.66486174996515
| 36>   H          -6.02174902533034     -0.29324813226849     -0.17715643182860
| 37>   H          -3.50305728008549      3.16796655235268      0.52140925280262
| 38>   H          -5.77643532337797      2.13678032750153      0.39984091569786
| 39>   H          -1.74010174342944     -0.60523310453178     -0.54356548187453
| 40>   H          -0.52377533184004     -0.51255708549791      1.10930263672941
| 41>   H           3.74754253761040     -0.11513493690994      0.70902931502125
| 42>   H           1.72088092192766     -1.46080357442395      1.31909388538700
| 43>   H           1.13299801894373      3.19674935471579     -0.29607576485640
| 44>   H           3.43450583978311      2.24528941977158     -0.08460366299948
| 45> *
| 46>
| 47>                          ****END OF INPUT****

CARTESIAN COORDINATES (ANGSTROEM)
---------------------------------
  C     -3.629847    2.106349    0.294134
  C     -4.885217    1.524603    0.212852
  C     -2.439961    1.359290    0.084229
  C     -2.610969   -0.001719   -0.278022
  C     -3.872873   -0.578502   -0.369045
  C     -5.030239    0.166964   -0.109883
  C     -1.169481    2.092560    0.161648
  C      0.120674    1.405947    0.304262
  C      1.289642    2.164141    0.026302
  C      2.560665    1.627616    0.158129
  C      2.743613    0.309170    0.601917
  C      1.607213   -0.441854    0.929029
  C      0.329767    0.088712    0.788256
  O     -1.187874    3.354795    0.103444
  H     -3.957526   -1.631424   -0.664862
  H     -6.021749   -0.293248   -0.177156
  H     -3.503057    3.167967    0.521409
  H     -5.776435    2.136780    0.399841
  H     -1.740102   -0.605233   -0.543565
  H     -0.523775   -0.512557    1.109303
  H      3.747543   -0.115135    0.709029
  H      1.720881   -1.460804    1.319094
  H      1.132998    3.196749   -0.296076
  H      3.434506    2.245289   -0.084604

 Total Charge           Charge          ....   -1
 Multiplicity           Mult            ....    2
 Number of Electrons    NEL             ....   97
 Basis Dimension        Dim             ....  874

ORBITAL ENERGIES
----------------
                 SPIN UP ORBITALS
  NO   OCC          E(Eh)            E(eV)
   0   1.0000     -18.974462      -516.3214
   1   1.0000     -10.129549      -275.6390
   2   1.0000     -10.101678      -274.8806
   3   1.0000     -10.101662      -274.8802
   4   1.0000     -10.101643      -274.8797
   5   1.0000     -10.101631      -274.8793
   6   1.0000     -10.099506      -274.8215
   7   1.0000     -10.099497      -274.8213
   8   1.0000     -10.098520      -274.7947
   9   1.0000     -10.098496      -274.7940
  10   1.0000     -10.097998      -274.7805
  11   1.0000     -10.097967      -274.7797
  12   1.0000     -10.093065      -274.6463
  13   1.0000     -10.093048      -274.6458
  14   1.0000      -0.944046       -25.6888
  15   1.0000      -0.815810       -22.1993
  16   1.0000      -0.812542       -22.1104
  17   1.0000      -0.726828       -19.7780
  18   1.0000      -0.708931       -19.2910
  19   1.0000      -0.708104       -19.2685
  20   1.0000      -0.703036       -19.1306
  21   1.0000      -0.609965       -16.5980
  22   1.0000      -0.571519       -15.5518
  23   1.0000      -0.567361       -15.4387
  24   1.0000      -0.555601       -15.1187
  25   1.0000      -0.513665       -13.9775
  26   1.0000      -0.482942       -13.1415
  27   1.0000      -0.464047       -12.6274
  28   1.0000      -0.425788       -11.5863
  29   1.0000      -0.414626       -11.2825
  30   1.0000      -0.409598       -11.1457
  31   1.0000      -0.405720       -11.0402
  32   1.0000      -0.382973       -10.4212
  33   1.0000      -0.382725       -10.4145
  34   1.0000      -0.379719       -10.3327
  35   1.0000      -0.360106        -9.7990
  36   1.0000      -0.358318        -9.7503
  37   1.0000      -0.341623        -9.2960
  38   1.0000      -0.326687        -8.8896
  39   1.0000      -0.317815        -8.6482
  40   1.0000      -0.312462        -8.5025
  41   1.0000      -0.296920        -8.0796
  42   1.0000      -0.292841        -7.9686
  43   1.0000      -0.235502        -6.4083
  44   1.0000      -0.235343        -6.4040
  45   1.0000      -0.230717        -6.2781
  46   1.0000      -0.228294        -6.2122
  47   1.0000      -0.193063        -5.2535
  48   1.0000      -0.095066        -2.5869
  49   0.0000      -0.021345        -0.5808
  50   0.0000      -0.010959        -0.2982
  51   0.0000      -0.009554        -0.2600
  52   0.0000      -0.002553        -0.0695
  53   0.0000       0.006475         0.1762

                 SPIN DOWN ORBITALS
  NO   OCC          E(Eh)            E(eV)
   0   1.0000     -18.968104      -516.1483
   1   1.0000     -10.125311      -275.5237
   2   1.0000     -10.102485      -274.9026
   3   1.0000     -10.102478      -274.9024
   4   1.0000     -10.102312      -274.8979
   5   1.0000     -10.102296      -274.8975
   6   1.0000     -10.098750      -274.8010
   7   1.0000     -10.098724      -274.8002
   8   1.0000     -10.097971      -274.7798
   9   1.0000     -10.097966      -274.7796
  10   1.0000     -10.095622      -274.7158
  11   1.0000     -10.095580      -274.7147
  12   1.0000     -10.091347      -274.5995
  13   1.0000     -10.091325      -274.5989
  14   1.0000      -0.933310       -25.3967
  15   1.0000      -0.813497       -22.1364
  16   1.0000      -0.810765       -22.0620
  17   1.0000      -0.722555       -19.6617
  18   1.0000      -0.706889       -19.2354
  19   1.0000      -0.706078       -19.2134
  20   1.0000      -0.700998       -19.0751
  21   1.0000      -0.601616       -16.3708
  22   1.0000      -0.569187       -15.4884
  23   1.0000      -0.566595       -15.4178
  24   1.0000      -0.554039       -15.0762
  25   1.0000      -0.510745       -13.8981
  26   1.0000      -0.482031       -13.1167
  27   1.0000      -0.461166       -12.5490
  28   1.0000      -0.423735       -11.5304
  29   1.0000      -0.413089       -11.2407
  30   1.0000      -0.408417       -11.1136
  31   1.0000      -0.404605       -11.0099
  32   1.0000      -0.382237       -10.4012
  33   1.0000      -0.379710       -10.3324
  34   1.0000      -0.377836       -10.2815
  35   1.0000      -0.356096        -9.6899
  36   1.0000      -0.348411        -9.4807
  37   1.0000      -0.336307        -9.1514
  38   1.0000      -0.324777        -8.8376
  39   1.0000      -0.313316        -8.5258
  40   1.0000      -0.299744        -8.1564
  41   1.0000      -0.295681        -8.0459
  42   1.0000      -0.288781        -7.8581
  43   1.0000      -0.230586        -6.2746
  44   1.0000      -0.229670        -6.2496
  45   1.0000      -0.222712        -6.0603
  46   1.0000      -0.211827        -5.7641
  47   1.0000      -0.188029        -5.1165
  48   0.0000      -0.050222        -1.3666
  49   0.0000      -0.011850        -0.3225
  50   0.0000      -0.006175        -0.1680
  51   0.0000      -0.005900        -0.1605
  52   0.0000      -0.001120        -0.0305

MULLIKEN ATOMIC CHARGES AND SPIN POPULATIONS
--------------------------------------------
   0 C :   -1.068885    0.163224
   1 C :   -0.427820   -0.060905
   2 C :    1.665939   -0.057941
   3 C :   -0.535794    0.119115
   4 C :   -0.891929   -0.056448
   5 C :   -0.182346    0.159735
   6 C :    1.201853    0.235848
   7 C :    1.665697   -0.058077
   8 C :   -1.063780    0.163702
   9 C :   -0.428403   -0.060939
  10 C :   -0.186006    0.160267
  11 C :   -0.907482   -0.056709
  12 C :   -0.538478    0.119608
  13 O :   -1.324801    0.251209
  14 H :    0.286345   -0.004279
  15 H :    0.430557    0.003674
  16 H :   -0.301384   -0.001765
  17 H :    0.427221   -0.006524
  18 H :    0.159292   -0.001851
  19 H :    0.157435   -0.001876
  20 H :    0.431532    0.003106
  21 H :    0.292005   -0.004157
  22 H :   -0.310809   -0.001890
  23 H :    0.450040   -0.006129
Sum of atomic charges         :   -1.0000000

LOEWDIN ATOMIC CHARGES AND SPIN POPULATIONS
-------------------------------------------
   0 C :    0.150616    0.051888
   1 C :    0.151266    0.013847
   2 C :   -0.172526    0.064484
   3 C :    0.167353    0.046828
   4 C :    0.158475    0.015811
   5 C :    0.154940    0.069921
   6 C :   -0.629508    0.186319
   7 C :   -0.172582    0.064712
   8 C :    0.150668    0.052061
   9 C :    0.151126    0.013916
  10 C :    0.154998    0.070244
  11 C :    0.158301    0.015896
  12 C :    0.167192    0.047019
  13 O :    0.383721    0.217928
  14 H :   -0.181183   -0.002419
  15 H :   -0.190662    0.018392
  16 H :   -0.221374    0.011724
  17 H :   -0.183083   -0.003409
  18 H :   -0.210587    0.010204
  19 H :   -0.210683    0.010241
  20 H :   -0.190709    0.018474
  21 H :   -0.181230   -0.002424
  22 H :   -0.221416    0.011760
  23 H :   -0.183115   -0.003418

  Mayer bond orders larger than 0.100000
B(  0-C ,  1-C ) :   1.4444 B(  0-C ,  3-C ) :  -0.4475 B(  0-C ,  4-C ) :   0.1561
B(  0-C ,  6-C ) :   0.2189 B(  0-C , 16-H ) :   1.5105 B(  0-C , 17-H ) :  -0.1643
B(  1-C ,  4-C ) :   0.1106 B(  1-C ,  5-C ) :   1.2849 B(  1-C , 17-H ) :   0.5606
B(  1-C , 18-H ) :  -0.1049 B(  2-C ,  3-C ) :   0.4830 B(  2-C ,  4-C ) :  -0.1979
B(  2-C ,  6-C ) :   0.5935 B(  2-C , 13-O ) :   0.1107 B(  2-C , 16-H ) :  -0.1089
B(  2-C , 17-H ) :   0.1641 B(  3-C ,  4-C ) :   1.4930 B(  3-C ,  6-C ) :   0.1127
B(  3-C , 12-C ) :   0.1467 B(  3-C , 18-H ) :   1.2742 B(  3-C , 19-H ) :  -0.1480
B(  4-C ,  5-C ) :   1.3587 B(  4-C , 14-H ) :   0.6887 B(  5-C ,  6-C ) :   0.2206
B(  5-C , 14-H ) :   0.1086 B(  5-C , 15-H ) :   0.5267 B(  5-C , 17-H ) :   0.1219
B(  6-C ,  7-C ) :   0.5914 B(  6-C ,  8-C ) :   0.2110 B(  6-C , 10-C ) :   0.2170
B(  6-C , 12-C ) :   0.1132 B(  6-C , 13-O ) :  -0.4875 B(  6-C , 16-H ) :  -0.4473
B(  6-C , 18-H ) :  -0.1218 B(  6-C , 19-H ) :  -0.1254 B(  6-C , 22-H ) :  -0.4577
B(  7-C , 11-C ) :  -0.2006 B(  7-C , 12-C ) :   0.4824 B(  7-C , 13-O ) :   0.1151
B(  7-C , 22-H ) :  -0.1168 B(  7-C , 23-H ) :   0.1706 B(  8-C ,  9-C ) :   1.4417
B(  8-C , 10-C ) :  -0.1079 B(  8-C , 11-C ) :   0.1573 B(  8-C , 12-C ) :  -0.4515
B(  8-C , 22-H ) :   1.5346 B(  8-C , 23-H ) :  -0.1668 B(  9-C , 10-C ) :   1.2929
B(  9-C , 11-C ) :   0.1249 B(  9-C , 19-H ) :  -0.1091 B(  9-C , 23-H ) :   0.5174
B( 10-C , 11-C ) :   1.3677 B( 10-C , 20-H ) :   0.5284 B( 10-C , 21-H ) :   0.1137
B( 10-C , 23-H ) :   0.1267 B( 11-C , 12-C ) :   1.4941 B( 11-C , 21-H ) :   0.6780
B( 12-C , 18-H ) :  -0.1469 B( 12-C , 19-H ) :   1.2768 B( 13-O , 16-H ) :   0.4324
B( 13-O , 22-H ) :   0.4336 B( 16-H , 18-H ) :   0.1550 B( 16-H , 22-H ) :   0.1867
B( 19-H , 22-H ) :   0.1589 B( 22-H , 23-H ) :  -0.1101

Dispersion correction           -0.034699664
FINAL SINGLE POINT ENERGY      -577.008522314945

DIPOLE MOMENT
-------------

Method             : SCF
Type of density    : Electron Density
Multiplicity       :   2
Irrep              :   0
Energy             :  -576.9738226512271240 Eh
Relativity type    :
Basis              : AO
                                X                 Y                 Z
Electronic contribution:     -0.037076021       2.398011901      -0.111999859
Nuclear contribution   :      0.065380464      -4.610103580       0.211136604
                        -----------------------------------------
Total Dipole Moment    :      0.028304443      -2.212091680       0.099136745
                        -----------------------------------------
Magnitude (a.u.)       :      2.214492907
Magnitude (Debye)      :      5.628793642

Rotational constants in cm-1:             0.059016             0.013412             0.011183
Rotational constants in MHz :          1769.265782           402.071173           335.263928

                             ****ORCA TERMINATED NORMALLY****
TOTAL RUN TIME: 0 days 0 hours 10 minutes 43 seconds 894 msec
