                         Program Version 6.0.0  -   RELEASE  -
|  1> !r2SCANh freq aug-cc-pVTZ d3 TightSCF SlowConv RIJCOSX defgrid2
|  2>
|  3> %pal
|  4> nprocs 12
|  5> end
|  6>
|  7> %scf
|  8> MaxIter 1500
|  9> end
| 10>
| 11> %maxcore 5000
| 12>
| 13> !CPCM
| 14> %cpcm smd true
| 15> SMDsolvent "MeCN"
| 16> surfacetype gepol_ses
| 17> rsolv 2.19
| 18> end
| 19>
| 20> * xyz -1 2
| 21> C           0.68391564095105     -1.22655247058186     -0.00266738917736
| 22> C          -0.68647041441780     -1.22248076668827     -0.00129082339676
| 23> C          -1.38497008212606      0.00441378010914      0.00001532089024
| 24> C          -0.65993809823673      1.21353909051636     -0.00119974913039
| 25> C           0.71356217199750      1.18840348231936     -0.00256260188874
| 26> C           1.42901906372521     -0.02723330557364     -0.00308221614228
| 27> C           2.88628902873509     -0.08299882288924     -0.00393359942071
| 28> O           3.49164049414984     -1.15764221003515     -0.00513449242667
| 29> C           3.65838250448829      1.21148675774839     -0.00176477521496
| 30> H           3.41854265871873      1.81204944290911      0.87705350850477
| 31> H           4.72237767695263      0.99176578266701     -0.00371497988860
| 32> H           3.41635770560376      1.81651964026679     -0.87679812620630
| 33> H           1.24751892861518      2.12857107690408     -0.00349010994118
| 34> H          -1.20101500476486      2.14681744501789     -0.00072388419095
| 35> N          -2.77220985934452      0.01966496705721      0.00276515737138
| 36> O          -3.38014871613934      1.13164924100673      0.00399859560182
| 37> O          -3.40462246235809     -1.07864687959425      0.00472707399881
| 38> H          -1.25010832964527     -2.14261290459106     -0.00093590499540
| 39> H           1.22284259309539     -2.16416314656859     -0.00334650434672
| 40> *
| 41>
| 42>                          ****END OF INPUT****

CARTESIAN COORDINATES (ANGSTROEM)
---------------------------------
  C      0.683916   -1.226552   -0.002667
  C     -0.686470   -1.222481   -0.001291
  C     -1.384970    0.004414    0.000015
  C     -0.659938    1.213539   -0.001200
  C      0.713562    1.188403   -0.002563
  C      1.429019   -0.027233   -0.003082
  C      2.886289   -0.082999   -0.003934
  O      3.491640   -1.157642   -0.005134
  C      3.658383    1.211487   -0.001765
  H      3.418543    1.812049    0.877054
  H      4.722378    0.991766   -0.003715
  H      3.416358    1.816520   -0.876798
  H      1.247519    2.128571   -0.003490
  H     -1.201015    2.146817   -0.000724
  N     -2.772210    0.019665    0.002765
  O     -3.380149    1.131649    0.003999
  O     -3.404622   -1.078647    0.004727
  H     -1.250108   -2.142613   -0.000936
  H      1.222843   -2.164163   -0.003347

 Total Charge           Charge          ....   -1
 Multiplicity           Mult            ....    2
 Number of Electrons    NEL             ....   87
 Basis Dimension        Dim             ....  713

ORBITAL ENERGIES
----------------
                 SPIN UP ORBITALS
  NO   OCC          E(Eh)            E(eV)
   0   1.0000     -19.083716      -519.2943
   1   1.0000     -19.083553      -519.2899
   2   1.0000     -19.080603      -519.2096
   3   1.0000     -14.460151      -393.4807
   4   1.0000     -10.221467      -278.1403
   5   1.0000     -10.184644      -277.1383
   6   1.0000     -10.154444      -276.3165
   7   1.0000     -10.151250      -276.2295
   8   1.0000     -10.150733      -276.2155
   9   1.0000     -10.150614      -276.2123
  10   1.0000     -10.150439      -276.2075
  11   1.0000     -10.135374      -275.7975
  12   1.0000      -1.149055       -31.2674
  13   1.0000      -1.018767       -27.7221
  14   1.0000      -0.973793       -26.4983
  15   1.0000      -0.861538       -23.4436
  16   1.0000      -0.789958       -21.4958
  17   1.0000      -0.746607       -20.3162
  18   1.0000      -0.728392       -19.8206
  19   1.0000      -0.679361       -18.4863
  20   1.0000      -0.593276       -16.1439
  21   1.0000      -0.579052       -15.7568
  22   1.0000      -0.535327       -14.5670
  23   1.0000      -0.502110       -13.6631
  24   1.0000      -0.476765       -12.9734
  25   1.0000      -0.466459       -12.6930
  26   1.0000      -0.454762       -12.3747
  27   1.0000      -0.429170       -11.6783
  28   1.0000      -0.425767       -11.5857
  29   1.0000      -0.421968       -11.4823
  30   1.0000      -0.405783       -11.0419
  31   1.0000      -0.388071       -10.5600
  32   1.0000      -0.381808       -10.3895
  33   1.0000      -0.362004        -9.8506
  34   1.0000      -0.351689        -9.5699
  35   1.0000      -0.334046        -9.0899
  36   1.0000      -0.316136        -8.6025
  37   1.0000      -0.269557        -7.3350
  38   1.0000      -0.257896        -7.0177
  39   1.0000      -0.254739        -6.9318
  40   1.0000      -0.252176        -6.8621
  41   1.0000      -0.228330        -6.2132
  42   1.0000      -0.226630        -6.1669
  43   1.0000      -0.131134        -3.5683
  44   0.0000      -0.045250        -1.2313
  45   0.0000      -0.016484        -0.4485
  46   0.0000       0.008690         0.2365
  47   0.0000       0.022338         0.6078
  48   0.0000       0.025844         0.7033

                 SPIN DOWN ORBITALS
  NO   OCC          E(Eh)            E(eV)
   0   1.0000     -19.078115      -519.1419
   1   1.0000     -19.078037      -519.1398
   2   1.0000     -19.077481      -519.1246
   3   1.0000     -14.453706      -393.3053
   4   1.0000     -10.220819      -278.1226
   5   1.0000     -10.183848      -277.1166
   6   1.0000     -10.155197      -276.3370
   7   1.0000     -10.151687      -276.2414
   8   1.0000     -10.149131      -276.1719
   9   1.0000     -10.148817      -276.1634
  10   1.0000     -10.147724      -276.1336
  11   1.0000     -10.135440      -275.7993
  12   1.0000      -1.139293       -31.0017
  13   1.0000      -1.013815       -27.5873
  14   1.0000      -0.964994       -26.2588
  15   1.0000      -0.857942       -23.3458
  16   1.0000      -0.782647       -21.2969
  17   1.0000      -0.743973       -20.2445
  18   1.0000      -0.724784       -19.7224
  19   1.0000      -0.671367       -18.2688
  20   1.0000      -0.592757       -16.1297
  21   1.0000      -0.573999       -15.6193
  22   1.0000      -0.533143       -14.5075
  23   1.0000      -0.496180       -13.5018
  24   1.0000      -0.462970       -12.5981
  25   1.0000      -0.452409       -12.3107
  26   1.0000      -0.446571       -12.1518
  27   1.0000      -0.426029       -11.5928
  28   1.0000      -0.424146       -11.5416
  29   1.0000      -0.415913       -11.3176
  30   1.0000      -0.405178       -11.0255
  31   1.0000      -0.386520       -10.5177
  32   1.0000      -0.380970       -10.3667
  33   1.0000      -0.354314        -9.6414
  34   1.0000      -0.350399        -9.5348
  35   1.0000      -0.323374        -8.7995
  36   1.0000      -0.315563        -8.5869
  37   1.0000      -0.253003        -6.8846
  38   1.0000      -0.250657        -6.8207
  39   1.0000      -0.236930        -6.4472
  40   1.0000      -0.233185        -6.3453
  41   1.0000      -0.224877        -6.1192
  42   1.0000      -0.222387        -6.0514
  43   0.0000      -0.081220        -2.2101
  44   0.0000      -0.018864        -0.5133
  45   0.0000      -0.013504        -0.3675
  46   0.0000       0.009934         0.2703
  47   0.0000       0.023325         0.6347

MULLIKEN ATOMIC CHARGES AND SPIN POPULATIONS
--------------------------------------------
   0 C :   -0.921043   -0.063550
   1 C :   -0.384727    0.135372
   2 C :    0.536737   -0.038517
   3 C :   -0.673767    0.147730
   4 C :   -0.361982   -0.064842
   5 C :    1.364317    0.229514
   6 C :    0.689808    0.032236
   7 O :   -1.029459    0.099805
   8 C :   -0.602591   -0.016661
   9 H :    0.247125    0.006139
  10 H :    0.171876   -0.001955
  11 H :    0.246703    0.006128
  12 H :   -0.076313   -0.006980
  13 H :    0.440310    0.002666
  14 N :    0.511103    0.167080
  15 O :   -0.819554    0.186775
  16 O :   -0.818801    0.189500
  17 H :    0.511369   -0.000052
  18 H :   -0.031112   -0.010387
Sum of atomic charges         :   -1.0000000

LOEWDIN ATOMIC CHARGES AND SPIN POPULATIONS
-------------------------------------------
   0 C :    0.177150    0.018912
   1 C :    0.184006    0.050950
   2 C :   -0.310657    0.065953
   3 C :    0.188833    0.056885
   4 C :    0.187891    0.021452
   5 C :   -0.160327    0.086820
   6 C :   -0.587240    0.060985
   7 O :    0.436105    0.082634
   8 C :    0.560281    0.007835
   9 H :   -0.170941    0.001883
  10 H :   -0.190471   -0.000142
  11 H :   -0.171264    0.001877
  12 H :   -0.194031   -0.002080
  13 H :   -0.217401    0.012545
  14 N :   -0.829103    0.189215
  15 O :    0.257729    0.166630
  16 O :    0.257938    0.168776
  17 H :   -0.218098    0.011103
  18 H :   -0.200400   -0.002232

  Mayer bond orders larger than 0.100000
B(  0-C ,  1-C ) :   1.4238 B(  0-C ,  2-C ) :  -0.3888 B(  0-C ,  3-C ) :  -0.1122
B(  0-C ,  4-C ) :  -0.5097 B(  0-C ,  6-C ) :   0.2965 B(  0-C , 12-H ) :   0.1032
B(  0-C , 16-O ) :  -0.1457 B(  0-C , 18-H ) :   1.3520 B(  1-C ,  2-C ) :   0.7670
B(  1-C ,  3-C ) :   0.1970 B(  1-C ,  4-C ) :  -0.2525 B(  1-C ,  5-C ) :   0.2787
B(  1-C , 14-N ) :  -0.1772 B(  1-C , 17-H ) :   0.3265 B(  2-C ,  3-C ) :   0.6001
B(  2-C ,  4-C ) :  -0.3048 B(  2-C , 14-N ) :   1.3887 B(  2-C , 15-O ) :   0.4010
B(  2-C , 16-O ) :   0.4202 B(  2-C , 17-H ) :   0.1050 B(  3-C ,  4-C ) :   0.9428
B(  3-C ,  5-C ) :   0.3064 B(  3-C , 13-H ) :   0.4326 B(  3-C , 14-N ) :  -0.2478
B(  4-C ,  5-C ) :   0.3038 B(  4-C ,  6-C ) :   0.1830 B(  4-C , 12-H ) :   1.5548
B(  4-C , 15-O ) :  -0.1324 B(  5-C ,  6-C ) :   0.3301 B(  5-C ,  7-O ) :   0.2355
B(  5-C , 12-H ) :  -0.3024 B(  5-C , 18-H ) :  -0.1995 B(  6-C ,  7-O ) :   0.7424
B(  6-C ,  8-C ) :   0.9138 B(  7-O , 18-H ) :   0.1637 B(  8-C ,  9-H ) :   0.9732
B(  8-C , 10-H ) :   0.9542 B(  8-C , 11-H ) :   0.9739 B( 12-H , 18-H ) :   0.1106
B( 14-N , 15-O ) :   0.8550 B( 14-N , 16-O ) :   0.8568 B( 15-O , 16-O ) :   0.1059

Dispersion correction           -0.006604756
FINAL SINGLE POINT ENERGY      -589.426879747343

DIPOLE MOMENT
-------------

Method             : SCF
Type of density    : Electron Density
Multiplicity       :   2
Irrep              :   0
Energy             :  -589.4202749910170951 Eh
Relativity type    :
Basis              : AO
                                X                 Y                 Z
Electronic contribution:     -7.566877729      -2.943166045       0.002448913
Nuclear contribution   :     10.800752325       4.291315481      -0.006585737
                        -----------------------------------------
Total Dipole Moment    :      3.233874596       1.348149436      -0.004136824
                        -----------------------------------------
Magnitude (a.u.)       :      3.503636528
Magnitude (Debye)      :      8.905536320

VIBRATIONAL FREQUENCIES
-----------------------

Scaling factor for frequencies =  1.000000000  (already applied!)

     0:       0.00 cm**-1
     1:       0.00 cm**-1
     2:       0.00 cm**-1
     3:       0.00 cm**-1
     4:       0.00 cm**-1
     5:       0.00 cm**-1
     6:      64.79 cm**-1
     7:      73.27 cm**-1
     8:     108.00 cm**-1
     9:     144.16 cm**-1
    10:     160.46 cm**-1
    11:     227.04 cm**-1
    12:     271.43 cm**-1
    13:     300.44 cm**-1
    14:     407.87 cm**-1
    15:     446.01 cm**-1
    16:     446.26 cm**-1
    17:     523.10 cm**-1
    18:     549.20 cm**-1
    19:     584.15 cm**-1
    20:     621.95 cm**-1
    21:     626.45 cm**-1
    22:     638.58 cm**-1
    23:     732.44 cm**-1
    24:     741.68 cm**-1
    25:     821.87 cm**-1
    26:     827.12 cm**-1
    27:     839.17 cm**-1
    28:     955.06 cm**-1
    29:     984.73 cm**-1
    30:    1004.13 cm**-1
    31:    1005.11 cm**-1
    32:    1030.50 cm**-1
    33:    1072.86 cm**-1
    34:    1107.63 cm**-1
    35:    1118.55 cm**-1
    36:    1186.50 cm**-1
    37:    1299.34 cm**-1
    38:    1304.04 cm**-1
    39:    1340.60 cm**-1
    40:    1369.81 cm**-1
    41:    1384.43 cm**-1
    42:    1401.21 cm**-1
    43:    1451.52 cm**-1
    44:    1459.65 cm**-1
    45:    1476.46 cm**-1
    46:    1505.56 cm**-1
    47:    1559.72 cm**-1
    48:    1627.28 cm**-1
    49:    1658.73 cm**-1
    50:    3047.24 cm**-1
    51:    3112.51 cm**-1
    52:    3157.11 cm**-1
    53:    3199.93 cm**-1
    54:    3200.79 cm**-1
    55:    3231.41 cm**-1
    56:    3234.49 cm**-1

IR SPECTRUM
-----------

 Mode   freq       eps      Int      T**2         TX        TY        TZ
       cm**-1   L/(mol*cm) km/mol    a.u.
----------------------------------------------------------------------------
  6:     64.79   0.000736    3.72  0.003546  ( 0.000077  0.000420  0.059547)
  7:     73.27   0.001969    9.95  0.008385  (-0.000942  0.000442  0.091565)
  8:    108.00   0.000203    1.02  0.000586  ( 0.000766  0.000798 -0.024176)
  9:    144.16   0.000107    0.54  0.000232  (-0.001249 -0.000900 -0.015168)
 10:    160.46   0.002350   11.88  0.004571  ( 0.048890  0.046698 -0.000336)
 11:    227.04   0.000482    2.43  0.000662  ( 0.000299 -0.000003 -0.025729)
 12:    271.43   0.001889    9.55  0.002172  (-0.042360  0.019421 -0.000049)
 13:    300.44   0.001281    6.47  0.001330  ( 0.035439 -0.008632 -0.000040)
 14:    407.87   0.000747    3.78  0.000572  ( 0.000624  0.000213 -0.023899)
 15:    446.01   0.000838    4.24  0.000587  ( 0.013053  0.020099 -0.003511)
 16:    446.26   0.000693    3.50  0.000485  (-0.011957 -0.018125 -0.003665)
 17:    523.10   0.009819   49.62  0.005858  (-0.076160  0.007586  0.000156)
 18:    549.20   0.003447   17.42  0.001959  (-0.036902 -0.024430  0.000026)
 19:    584.15   0.000363    1.83  0.000194  ( 0.000380  0.000104  0.013915)
 20:    621.95   0.011363   57.42  0.005701  (-0.000409 -0.000039  0.075506)
 21:    626.45   0.005169   26.12  0.002575  (-0.048008 -0.016432 -0.000122)
 22:    638.58   0.000082    0.41  0.000040  ( 0.005929 -0.002166  0.000114)
 23:    732.44   0.013786   69.67  0.005874  ( 0.076452 -0.005374 -0.000020)
 24:    741.68   0.000013    0.07  0.000005  ( 0.000181 -0.000030  0.002322)
 25:    821.87   0.005266   26.61  0.002000  ( 0.001532  0.000077 -0.044690)
 26:    827.12   0.028434  143.69  0.010728  ( 0.103507 -0.003754  0.000241)
 27:    839.17   0.017388   87.87  0.006466  (-0.000064  0.000139 -0.080413)
 28:    955.06   0.091053  460.15  0.029752  (-0.171371 -0.019580  0.000059)
 29:    984.73   0.000067    0.34  0.000021  ( 0.002503 -0.000025  0.003852)
 30:   1004.13   0.000057    0.29  0.000018  ( 0.000201  0.000407  0.004196)
 31:   1005.11   0.007612   38.47  0.002363  ( 0.048600  0.001156 -0.000189)
 32:   1030.50   0.000683    3.45  0.000207  ( 0.000493  0.000238  0.014370)
 33:   1072.86   0.177131  895.15  0.051522  (-0.226449  0.015597  0.000213)
 34:   1107.63   0.103950  525.32  0.029287  ( 0.170872  0.009476 -0.000174)
 35:   1118.55   0.013177   66.59  0.003676  (-0.035768  0.048959 -0.000038)
 36:   1186.50   0.007689   38.86  0.002022  ( 0.044968 -0.000389 -0.000113)
 37:   1299.34   0.367721  1858.31  0.088316  ( 0.297084  0.007557 -0.000269)
 38:   1304.04   0.017539   88.64  0.004197  ( 0.047401  0.044162 -0.000117)
 39:   1340.60   0.081541  412.08  0.018981  ( 0.062862 -0.122594 -0.000039)
 40:   1369.81   0.074327  375.62  0.016933  ( 0.129631  0.011333 -0.000227)
 41:   1384.43   0.183948  929.60  0.041463  (-0.201207 -0.031288  0.000290)
 42:   1401.21   0.043843  221.56  0.009764  ( 0.034017 -0.092774 -0.000054)
 43:   1451.52   0.009845   49.75  0.002117  ( 0.030287 -0.034630  0.000233)
 44:   1459.65   0.002944   14.88  0.000629  ( 0.000257 -0.000763 -0.025073)
 45:   1476.46   0.002623   13.25  0.000554  (-0.012033 -0.020237  0.000118)
 46:   1505.56   0.090887  459.30  0.018838  ( 0.136890 -0.009969 -0.000143)
 47:   1559.72   0.011040   55.79  0.002209  ( 0.041933 -0.021224  0.000003)
 48:   1627.28   0.225459  1139.38  0.043236  (-0.196976  0.066607  0.000329)
 49:   1658.73   0.060988  308.21  0.011474  (-0.080412  0.070766  0.000065)
 50:   3047.24   0.003042   15.37  0.000312  (-0.014951 -0.009379 -0.000057)
 51:   3112.51   0.002566   12.97  0.000257  ( 0.000129  0.000204 -0.016038)
 52:   3157.11   0.007131   36.04  0.000705  ( 0.026297 -0.003650  0.000074)
 53:   3199.93   0.001538    7.77  0.000150  ( 0.002153  0.012054 -0.000046)
 54:   3200.79   0.001729    8.74  0.000169  ( 0.004392  0.012219  0.000066)
 55:   3231.41   0.001487    7.51  0.000144  ( 0.003784 -0.011369 -0.000046)
 56:   3234.49   0.001080    5.46  0.000104  (-0.006648 -0.007744  0.000046)

--------------------------
THERMOCHEMISTRY AT 298.15K
--------------------------

Temperature         ...   298.15 K
Pressure            ...     1.00 atm
Total Mass          ...   165.15 AMU
Quasi RRHO          ...     True
Cut-Off Frequency   ...     1.00 cm^-1

Throughout the following assumptions are being made:
  (1) The electronic state is orbitally nondegenerate
      but the spin degeneracy is treated
  (2) There are no thermally accessible electronically excited states
  (3) Hindered rotations indicated by low frequency modes are not
      treated as such but are treated as vibrations and this may
      cause some error
  (4) All equations used are the standard statistical mechanics
      equations for an ideal gas
  (5) All vibrations are strictly harmonic

freq.      64.79  E(vib)   ...       0.50
freq.      73.27  E(vib)   ...       0.49
freq.     108.00  E(vib)   ...       0.45
freq.     144.16  E(vib)   ...       0.41
freq.     160.46  E(vib)   ...       0.39
freq.     227.04  E(vib)   ...       0.33
freq.     271.43  E(vib)   ...       0.29
freq.     300.44  E(vib)   ...       0.26
freq.     407.87  E(vib)   ...       0.19
freq.     446.01  E(vib)   ...       0.17
freq.     446.26  E(vib)   ...       0.17
freq.     523.10  E(vib)   ...       0.13
freq.     549.20  E(vib)   ...       0.12
freq.     584.15  E(vib)   ...       0.11
freq.     621.95  E(vib)   ...       0.09
freq.     626.45  E(vib)   ...       0.09
freq.     638.58  E(vib)   ...       0.09
freq.     732.44  E(vib)   ...       0.06
freq.     741.68  E(vib)   ...       0.06
freq.     821.87  E(vib)   ...       0.05
freq.     827.12  E(vib)   ...       0.04
freq.     839.17  E(vib)   ...       0.04
freq.     955.06  E(vib)   ...       0.03
freq.     984.73  E(vib)   ...       0.02
freq.    1004.13  E(vib)   ...       0.02
freq.    1005.11  E(vib)   ...       0.02
freq.    1030.50  E(vib)   ...       0.02
freq.    1072.86  E(vib)   ...       0.02
freq.    1107.63  E(vib)   ...       0.02
freq.    1118.55  E(vib)   ...       0.01
freq.    1186.50  E(vib)   ...       0.01
freq.    1299.34  E(vib)   ...       0.01
freq.    1304.04  E(vib)   ...       0.01
freq.    1340.60  E(vib)   ...       0.01
freq.    1369.81  E(vib)   ...       0.01
freq.    1384.43  E(vib)   ...       0.00
freq.    1401.21  E(vib)   ...       0.00
freq.    1451.52  E(vib)   ...       0.00
freq.    1459.65  E(vib)   ...       0.00
freq.    1476.46  E(vib)   ...       0.00
freq.    1505.56  E(vib)   ...       0.00
freq.    1559.72  E(vib)   ...       0.00
freq.    1627.28  E(vib)   ...       0.00
freq.    1658.73  E(vib)   ...       0.00
freq.    3047.24  E(vib)   ...       0.00
freq.    3112.51  E(vib)   ...       0.00
freq.    3157.11  E(vib)   ...       0.00
freq.    3199.93  E(vib)   ...       0.00
freq.    3200.79  E(vib)   ...       0.00
freq.    3231.41  E(vib)   ...       0.00
freq.    3234.49  E(vib)   ...       0.00

------------
INNER ENERGY
------------

The inner energy is: U= E(el) + E(ZPE) + E(vib) + E(rot) + E(trans)
    E(el)   - is the total energy from the electronic structure calculation
              = E(kin-el) + E(nuc-el) + E(el-el) + E(nuc-nuc)
    E(ZPE)  - the the zero temperature vibrational energy from the frequency calculation
    E(vib)  - the the finite temperature correction to E(ZPE) due to population
              of excited vibrational states
    E(rot)  - is the rotational thermal energy
    E(trans)- is the translational thermal energy

Summary of contributions to the inner energy U:
Electronic energy                ...   -589.42687975 Eh
Zero point energy                ...      0.13815350 Eh      86.69 kcal/mol
Thermal vibrational correction   ...      0.00759903 Eh       4.77 kcal/mol
Thermal rotational correction    ...      0.00141627 Eh       0.89 kcal/mol
Thermal translational correction ...      0.00141627 Eh       0.89 kcal/mol
-----------------------------------------------------------------------
Total thermal energy                   -589.27829467 Eh

Summary of corrections to the electronic energy:
(perhaps to be used in another calculation)
Total thermal correction                  0.01043157 Eh       6.55 kcal/mol
Non-thermal (ZPE) correction              0.13815350 Eh      86.69 kcal/mol
-----------------------------------------------------------------------
Total correction                          0.14858507 Eh      93.24 kcal/mol

--------
ENTHALPY
--------

The enthalpy is H = U + kB*T
                kB is Boltzmann's constant
Total thermal energy              ...   -589.27829467 Eh
Thermal Enthalpy correction       ...      0.00094421 Eh       0.59 kcal/mol
-----------------------------------------------------------------------
Total Enthalpy                    ...   -589.27735046 Eh

Note: Only C1 symmetry has been detected, increase convergence thresholds
      if your molecule has a higher symmetry. Symmetry factor of 1.0 is
      used for the rotational entropy correction.

Note: Rotational entropy computed according to Herzberg
Infrared and Raman Spectra, Chapter V,1, Van Nostrand Reinhold, 1945
Point Group:  C1, Symmetry Number:   1
Rotational constants in cm-1:     0.095413     0.015969     0.013714

Vibrational entropy computed according to the QRRHO of S. Grimme
Chem.Eur.J. 2012 18 9955 using a reference frequency of 100.0 cm-1

-------
ENTROPY
-------

The entropy contributions are T*S = T*(S(el)+S(vib)+S(rot)+S(trans))
     S(el)   - electronic entropy
     S(vib)  - vibrational entropy
     S(rot)  - rotational entropy
     S(trans)- translational entropy
The entropies will be listed as multiplied by the temperature to get
units of energy

Electronic entropy                ...      0.00065446 Eh      0.41 kcal/mol
Vibrational entropy               ...      0.01302981 Eh      8.18 kcal/mol
Rotational entropy                ...      0.01459803 Eh      9.16 kcal/mol
Translational entropy             ...      0.01958175 Eh     12.29 kcal/mol
-----------------------------------------------------------------------
Final entropy term                ...      0.04786404 Eh     30.04 kcal/mol

In case the symmetry of your molecule has not been determined correctly
or in case you have a reason to use a different symmetry number we print
out the resulting rotational entropy values for sn=1,12:

 non-linear molecules -----------------------------------
|  sn= 1 | S(rot)=       0.01459803 Eh      9.16 kcal/mol|
|  sn= 2 | S(rot)=       0.01394358 Eh      8.75 kcal/mol|
|  sn= 3 | S(rot)=       0.01356074 Eh      8.51 kcal/mol|
|  sn= 4 | S(rot)=       0.01328912 Eh      8.34 kcal/mol|
|  sn= 5 | S(rot)=       0.01307843 Eh      8.21 kcal/mol|
|  sn= 6 | S(rot)=       0.01290629 Eh      8.10 kcal/mol|
|  sn= 7 | S(rot)=       0.01276074 Eh      8.01 kcal/mol|
|  sn= 8 | S(rot)=       0.01263466 Eh      7.93 kcal/mol|

                             ****ORCA TERMINATED NORMALLY****
TOTAL RUN TIME: 0 days 1 hours 21 minutes 6 seconds 765 msec
