                         Program Version 6.0.0  -   RELEASE  -
|  1> !TPSSh freq aug-cc-pVTZ d3 TightSCF SlowConv RIJCOSX defgrid2
|  2>
|  3> %pal
|  4> nprocs 12
|  5> end
|  6>
|  7> %scf
|  8> MaxIter 1500
|  9> end
| 10>
| 11> %maxcore 5000
| 12>
| 13> !CPCM
| 14> %cpcm smd true
| 15> SMDsolvent "MeCN"
| 16> surfacetype gepol_ses
| 17> rsolv 2.19
| 18> end
| 19>
| 20> * xyz 0 1
| 21> C          -1.19973959102589     -0.02124731187927      0.00013021228664
| 22> C          -1.20391341300694      1.37975092281472      0.00041241417976
| 23> C           0.00003181018853      2.06972132257197      0.00002030562174
| 24> C           1.20395106309798      1.37970700238710     -0.00047655634246
| 25> C           1.19974251715998     -0.02128932481862     -0.00034387087526
| 26> C          -0.00001152595579     -0.73308966007927     -0.00017866427770
| 27> H          -0.00003237942074     -1.81350313353619     -0.00026561585903
| 28> C           2.43639329805182     -0.73303174818490     -0.00016752454569
| 29> N           3.44136219415314     -1.30570048340416      0.00129922610207
| 30> H           2.14384907192228      1.91435889768384     -0.00061548440829
| 31> H           0.00005559230835      3.15118267642112      0.00010000210731
| 32> H          -2.14379428334631      1.91443247555764      0.00062392356719
| 33> C          -2.43641755610055     -0.73294369483587     -0.00002292155484
| 34> N          -3.44141259802585     -1.30556844069811     -0.00045534600143
| 35> *
| 36>
| 37>                          ****END OF INPUT****

CARTESIAN COORDINATES (ANGSTROEM)
---------------------------------
  C     -1.199740   -0.021247    0.000130
  C     -1.203913    1.379751    0.000412
  C      0.000032    2.069721    0.000020
  C      1.203951    1.379707   -0.000477
  C      1.199743   -0.021289   -0.000344
  C     -0.000012   -0.733090   -0.000179
  H     -0.000032   -1.813503   -0.000266
  C      2.436393   -0.733032   -0.000168
  N      3.441362   -1.305700    0.001299
  H      2.143849    1.914359   -0.000615
  H      0.000056    3.151183    0.000100
  H     -2.143794    1.914432    0.000624
  C     -2.436418   -0.732944   -0.000023
  N     -3.441413   -1.305568   -0.000455

 Total Charge           Charge          ....    0
 Multiplicity           Mult            ....    1
 Number of Electrons    NEL             ....   66
 Basis Dimension        Dim             ....  552

ORBITAL ENERGIES
----------------

  NO   OCC          E(Eh)            E(eV)
   0   2.0000     -14.263854      -388.1392
   1   2.0000     -14.263852      -388.1392
   2   2.0000     -10.175892      -276.9001
   3   2.0000     -10.175879      -276.8998
   4   2.0000     -10.168749      -276.7057
   5   2.0000     -10.168744      -276.7056
   6   2.0000     -10.160282      -276.4753
   7   2.0000     -10.152309      -276.2584
   8   2.0000     -10.152291      -276.2579
   9   2.0000     -10.140485      -275.9366
  10   2.0000      -0.908335       -24.7170
  11   2.0000      -0.902892       -24.5689
  12   2.0000      -0.872475       -23.7413
  13   2.0000      -0.787127       -21.4188
  14   2.0000      -0.769861       -20.9490
  15   2.0000      -0.651968       -17.7409
  16   2.0000      -0.647189       -17.6109
  17   2.0000      -0.579829       -15.7779
  18   2.0000      -0.498548       -13.5662
  19   2.0000      -0.488596       -13.2954
  20   2.0000      -0.477137       -12.9836
  21   2.0000      -0.437809       -11.9134
  22   2.0000      -0.413903       -11.2629
  23   2.0000      -0.384747       -10.4695
  24   2.0000      -0.380419       -10.3517
  25   2.0000      -0.375208       -10.2099
  26   2.0000      -0.368110       -10.0168
  27   2.0000      -0.362933        -9.8759
  28   2.0000      -0.339453        -9.2370
  29   2.0000      -0.337781        -9.1915
  30   2.0000      -0.336801        -9.1648
  31   2.0000      -0.274180        -7.4608
  32   2.0000      -0.269766        -7.3407
  33   0.0000      -0.085830        -2.3356
  34   0.0000      -0.070449        -1.9170
  35   0.0000      -0.006890        -0.1875
  36   0.0000      -0.006503        -0.1770
  37   0.0000       0.007657         0.2083

MULLIKEN ATOMIC CHARGES
-----------------------
   0 C :    1.006967
   1 C :   -0.577277
   2 C :   -0.395632
   3 C :   -0.577074
   4 C :    1.007780
   5 C :   -0.656907
   6 H :   -0.080845
   7 C :    0.815867
   8 N :   -0.998980
   9 H :    0.069638
  10 H :    0.500045
  11 H :    0.069447
  12 C :    0.815908
  13 N :   -0.998936
Sum of atomic charges:    0.0000000

LOEWDIN ATOMIC CHARGES
----------------------
   0 C :   -0.181004
   1 C :    0.237174
   2 C :    0.248066
   3 C :    0.237171
   4 C :   -0.181004
   5 C :    0.226107
   6 H :   -0.149048
   7 C :   -0.236873
   8 N :    0.251929
   9 H :   -0.153660
  10 H :   -0.160255
  11 H :   -0.153658
  12 C :   -0.236875
  13 N :    0.251929

  Mayer bond orders larger than 0.100000
B(  0-C ,  1-C ) :   0.6282 B(  0-C ,  4-C ) :   0.1407 B(  0-C ,  5-C ) :   0.6937
B(  0-C , 12-C ) :   0.8021 B(  0-C , 13-N ) :   0.1573 B(  1-C ,  2-C ) :   1.3828
B(  1-C ,  3-C ) :  -0.1003 B(  1-C , 11-H ) :   1.0669 B(  1-C , 12-C ) :   0.2158
B(  1-C , 13-N ) :   0.1265 B(  2-C ,  3-C ) :   1.3834 B(  2-C , 10-H ) :   0.5468
B(  3-C ,  4-C ) :   0.6277 B(  3-C ,  7-C ) :   0.2151 B(  3-C ,  8-N ) :   0.1266
B(  3-C ,  9-H ) :   1.0667 B(  4-C ,  5-C ) :   0.6926 B(  4-C ,  7-C ) :   0.8018
B(  4-C ,  8-N ) :   0.1580 B(  5-C ,  6-H ) :   1.2348 B(  7-C ,  8-N ) :   1.0522
B(  7-C , 12-C ) :   0.1830 B( 12-C , 13-N ) :   1.0523

Dispersion correction           -0.019067152
FINAL SINGLE POINT ENERGY      -416.932561225512

DIPOLE MOMENT
-------------

Method             : SCF
Type of density    : Electron Density
Multiplicity       :   1
Irrep              :   0
Energy             :  -416.9134940730257881 Eh
Relativity type    :
Basis              : AO
                                X                 Y                 Z
Electronic contribution:     -0.000035021      -2.440294035      -0.000550424
Nuclear contribution   :      0.000078416       4.841166227      -0.000264288
                        -----------------------------------------
Total Dipole Moment    :      0.000043396       2.400872192      -0.000814711
                        -----------------------------------------
Magnitude (a.u.)       :      2.400872331
Magnitude (Debye)      :      6.102532489

VIBRATIONAL FREQUENCIES
-----------------------

Scaling factor for frequencies =  1.000000000  (already applied!)

     0:       0.00 cm**-1
     1:       0.00 cm**-1
     2:       0.00 cm**-1
     3:       0.00 cm**-1
     4:       0.00 cm**-1
     5:       0.00 cm**-1
     6:     116.18 cm**-1
     7:     118.07 cm**-1
     8:     154.16 cm**-1
     9:     192.43 cm**-1
    10:     379.51 cm**-1
    11:     385.85 cm**-1
    12:     454.88 cm**-1
    13:     457.42 cm**-1
    14:     524.64 cm**-1
    15:     539.62 cm**-1
    16:     605.86 cm**-1
    17:     630.70 cm**-1
    18:     680.79 cm**-1
    19:     706.26 cm**-1
    20:     811.03 cm**-1
    21:     906.20 cm**-1
    22:     914.98 cm**-1
    23:     951.08 cm**-1
    24:    1008.36 cm**-1
    25:    1013.66 cm**-1
    26:    1111.79 cm**-1
    27:    1160.71 cm**-1
    28:    1182.15 cm**-1
    29:    1251.31 cm**-1
    30:    1316.22 cm**-1
    31:    1351.12 cm**-1
    32:    1441.12 cm**-1
    33:    1502.41 cm**-1
    34:    1604.26 cm**-1
    35:    1631.57 cm**-1
    36:    2303.87 cm**-1
    37:    2306.60 cm**-1
    38:    3194.44 cm**-1
    39:    3204.18 cm**-1
    40:    3212.46 cm**-1
    41:    3213.61 cm**-1

IR SPECTRUM
-----------

 Mode   freq       eps      Int      T**2         TX        TY        TZ
       cm**-1   L/(mol*cm) km/mol    a.u.
----------------------------------------------------------------------------
  6:    116.18   0.003630   18.34  0.009750  (-0.000059  0.098743  0.000235)
  7:    118.07   0.001992   10.07  0.005266  (-0.000138 -0.000294  0.072564)
  8:    154.16   0.000000    0.00  0.000000  (-0.000049  0.000252  0.000003)
  9:    192.43   0.000705    3.56  0.001143  ( 0.033802  0.000119  0.000232)
 10:    379.51   0.000000    0.00  0.000000  ( 0.000054  0.000098 -0.000015)
 11:    385.85   0.000162    0.82  0.000131  ( 0.000130  0.000040  0.011454)
 12:    454.88   0.000035    0.18  0.000024  (-0.004923  0.000273 -0.000190)
 13:    457.42   0.000215    1.08  0.000146  ( 0.000091  0.012101  0.000031)
 14:    524.64   0.006224   31.45  0.003702  (-0.000116  0.000045  0.060843)
 15:    539.62   0.000405    2.04  0.000234  (-0.000008 -0.015295  0.000036)
 16:    605.86   0.000314    1.59  0.000162  (-0.012721  0.000000  0.000286)
 17:    630.70   0.000000    0.00  0.000000  ( 0.000076 -0.000035  0.000017)
 18:    680.79   0.010387   52.49  0.004761  (-0.000106 -0.000009  0.069000)
 19:    706.26   0.000076    0.39  0.000034  ( 0.000006 -0.005808  0.000000)
 20:    811.03   0.009225   46.62  0.003550  (-0.000064 -0.000002  0.059578)
 21:    906.20   0.002281   11.53  0.000785  ( 0.028023  0.000012 -0.000407)
 22:    914.98   0.003999   20.21  0.001364  (-0.000289  0.000017 -0.036930)
 23:    951.08   0.000001    0.00  0.000000  ( 0.000018  0.000417  0.000009)
 24:   1008.36   0.000330    1.67  0.000102  (-0.000042  0.010108 -0.000010)
 25:   1013.66   0.000009    0.05  0.000003  ( 0.000091  0.000000 -0.001674)
 26:   1111.79   0.002461   12.44  0.000691  ( 0.000057 -0.026282 -0.000003)
 27:   1160.71   0.002315   11.70  0.000622  ( 0.024949  0.000108  0.000131)
 28:   1182.15   0.000588    2.97  0.000155  ( 0.012455 -0.000001  0.000126)
 29:   1251.31   0.000760    3.84  0.000189  (-0.000039  0.013765  0.000008)
 30:   1316.22   0.000120    0.61  0.000028  (-0.005329  0.000064 -0.000065)
 31:   1351.12   0.001001    5.06  0.000231  (-0.015204  0.000024 -0.000009)
 32:   1441.12   0.002091   10.57  0.000453  (-0.000012 -0.021280  0.000005)
 33:   1502.41   0.002896   14.63  0.000601  ( 0.024525 -0.000003  0.000031)
 34:   1604.26   0.000042    0.21  0.000008  (-0.000010 -0.002865  0.000002)
 35:   1631.57   0.002919   14.75  0.000558  (-0.023627  0.000005  0.000073)
 36:   2303.87   0.049278  249.03  0.006675  ( 0.081699  0.000006 -0.000032)
 37:   2306.60   0.012974   65.57  0.001755  ( 0.000016 -0.041896 -0.000004)
 38:   3194.44   0.000196    0.99  0.000019  (-0.000001 -0.004373 -0.000001)
 39:   3204.18   0.000113    0.57  0.000011  (-0.003321  0.000007  0.000060)
 40:   3212.46   0.000539    2.72  0.000052  (-0.000002 -0.007236  0.000002)
 41:   3213.61   0.000214    1.08  0.000021  ( 0.000001  0.004563 -0.000001)

--------------------------
THERMOCHEMISTRY AT 298.15K
--------------------------

Temperature         ...   298.15 K
Pressure            ...     1.00 atm
Total Mass          ...   128.13 AMU
Quasi RRHO          ...     True
Cut-Off Frequency   ...     1.00 cm^-1

Throughout the following assumptions are being made:
  (1) The electronic state is orbitally nondegenerate
  (2) There are no thermally accessible electronically excited states
  (3) Hindered rotations indicated by low frequency modes are not
      treated as such but are treated as vibrations and this may
      cause some error
  (4) All equations used are the standard statistical mechanics
      equations for an ideal gas
  (5) All vibrations are strictly harmonic

freq.     116.18  E(vib)   ...       0.44
freq.     118.07  E(vib)   ...       0.44
freq.     154.16  E(vib)   ...       0.40
freq.     192.43  E(vib)   ...       0.36
freq.     379.51  E(vib)   ...       0.21
freq.     385.85  E(vib)   ...       0.20
freq.     454.88  E(vib)   ...       0.16
freq.     457.42  E(vib)   ...       0.16
freq.     524.64  E(vib)   ...       0.13
freq.     539.62  E(vib)   ...       0.12
freq.     605.86  E(vib)   ...       0.10
freq.     630.70  E(vib)   ...       0.09
freq.     680.79  E(vib)   ...       0.08
freq.     706.26  E(vib)   ...       0.07
freq.     811.03  E(vib)   ...       0.05
freq.     906.20  E(vib)   ...       0.03
freq.     914.98  E(vib)   ...       0.03
freq.     951.08  E(vib)   ...       0.03
freq.    1008.36  E(vib)   ...       0.02
freq.    1013.66  E(vib)   ...       0.02
freq.    1111.79  E(vib)   ...       0.01
freq.    1160.71  E(vib)   ...       0.01
freq.    1182.15  E(vib)   ...       0.01
freq.    1251.31  E(vib)   ...       0.01
freq.    1316.22  E(vib)   ...       0.01
freq.    1351.12  E(vib)   ...       0.01
freq.    1441.12  E(vib)   ...       0.00
freq.    1502.41  E(vib)   ...       0.00
freq.    1604.26  E(vib)   ...       0.00
freq.    1631.57  E(vib)   ...       0.00
freq.    2303.87  E(vib)   ...       0.00
freq.    2306.60  E(vib)   ...       0.00
freq.    3194.44  E(vib)   ...       0.00
freq.    3204.18  E(vib)   ...       0.00
freq.    3212.46  E(vib)   ...       0.00
freq.    3213.61  E(vib)   ...       0.00

------------
INNER ENERGY
------------

The inner energy is: U= E(el) + E(ZPE) + E(vib) + E(rot) + E(trans)
    E(el)   - is the total energy from the electronic structure calculation
              = E(kin-el) + E(nuc-el) + E(el-el) + E(nuc-nuc)
    E(ZPE)  - the the zero temperature vibrational energy from the frequency calculation
    E(vib)  - the the finite temperature correction to E(ZPE) due to population
              of excited vibrational states
    E(rot)  - is the rotational thermal energy
    E(trans)- is the translational thermal energy

Summary of contributions to the inner energy U:
Electronic energy                ...   -416.93256123 Eh
Zero point energy                ...      0.09691209 Eh      60.81 kcal/mol
Thermal vibrational correction   ...      0.00512478 Eh       3.22 kcal/mol
Thermal rotational correction    ...      0.00141627 Eh       0.89 kcal/mol
Thermal translational correction ...      0.00141627 Eh       0.89 kcal/mol
-----------------------------------------------------------------------
Total thermal energy                   -416.82769181 Eh

Summary of corrections to the electronic energy:
(perhaps to be used in another calculation)
Total thermal correction                  0.00795732 Eh       4.99 kcal/mol
Non-thermal (ZPE) correction              0.09691209 Eh      60.81 kcal/mol
-----------------------------------------------------------------------
Total correction                          0.10486941 Eh      65.81 kcal/mol

--------
ENTHALPY
--------

The enthalpy is H = U + kB*T
                kB is Boltzmann's constant
Total thermal energy              ...   -416.82769181 Eh
Thermal Enthalpy correction       ...      0.00094421 Eh       0.59 kcal/mol
-----------------------------------------------------------------------
Total Enthalpy                    ...   -416.82674760 Eh

Note: Only C1 symmetry has been detected, increase convergence thresholds
      if your molecule has a higher symmetry. Symmetry factor of 1.0 is
      used for the rotational entropy correction.

Note: Rotational entropy computed according to Herzberg
Infrared and Raman Spectra, Chapter V,1, Van Nostrand Reinhold, 1945
Point Group:  C1, Symmetry Number:   1
Rotational constants in cm-1:     0.091112     0.030482     0.022841

Vibrational entropy computed according to the QRRHO of S. Grimme
Chem.Eur.J. 2012 18 9955 using a reference frequency of 100.0 cm-1

-------
ENTROPY
-------

The entropy contributions are T*S = T*(S(el)+S(vib)+S(rot)+S(trans))
     S(el)   - electronic entropy
     S(vib)  - vibrational entropy
     S(rot)  - rotational entropy
     S(trans)- translational entropy
The entropies will be listed as multiplied by the temperature to get
units of energy

Electronic entropy                ...      0.00000000 Eh      0.00 kcal/mol
Vibrational entropy               ...      0.00858503 Eh      5.39 kcal/mol
Rotational entropy                ...      0.01407379 Eh      8.83 kcal/mol
Translational entropy             ...      0.01922234 Eh     12.06 kcal/mol
-----------------------------------------------------------------------
Final entropy term                ...      0.04188117 Eh     26.28 kcal/mol

In case the symmetry of your molecule has not been determined correctly
or in case you have a reason to use a different symmetry number we print
out the resulting rotational entropy values for sn=1,12:

 non-linear molecules -----------------------------------
|  sn= 1 | S(rot)=       0.01407379 Eh      8.83 kcal/mol|
|  sn= 2 | S(rot)=       0.01341934 Eh      8.42 kcal/mol|
|  sn= 3 | S(rot)=       0.01303651 Eh      8.18 kcal/mol|
|  sn= 4 | S(rot)=       0.01276488 Eh      8.01 kcal/mol|
|  sn= 5 | S(rot)=       0.01255419 Eh      7.88 kcal/mol|
|  sn= 6 | S(rot)=       0.01238205 Eh      7.77 kcal/mol|
|  sn= 7 | S(rot)=       0.01223650 Eh      7.68 kcal/mol|
|  sn= 8 | S(rot)=       0.01211042 Eh      7.60 kcal/mol|
|  sn= 9 | S(rot)=       0.01199922 Eh      7.53 kcal/mol|
|  sn=10 | S(rot)=       0.01189974 Eh      7.47 kcal/mol|
|  sn=11 | S(rot)=       0.01180975 Eh      7.41 kcal/mol|
|  sn=12 | S(rot)=       0.01172759 Eh      7.36 kcal/mol|
 linear molecules ---------------------------------------
|  Dinfh | S(rot)=       0.00889406 Eh      5.58 kcal/mol|
|  Cinfv | S(rot)=       0.00954852 Eh      5.99 kcal/mol|
 --------------------------------------------------------

-------------------
GIBBS FREE ENERGY
-------------------

The Gibbs free energy is G = H - T*S

                             ****ORCA TERMINATED NORMALLY****
TOTAL RUN TIME: 0 days 0 hours 25 minutes 30 seconds 34 msec
