                         Program Version 6.0.0  -   RELEASE  -
|  1> !r2SCAN freq aug-cc-pVTZ d3 TightSCF SlowConv RIJCOSX defgrid2
|  2>
|  3> %pal
|  4> nprocs 12
|  5> end
|  6>
|  7> %scf
|  8> MaxIter 1500
|  9> end
| 10>
| 11> %maxcore 5000
| 12>
| 13> !CPCM
| 14> %cpcm smd true
| 15> SMDsolvent "MeCN"
| 16> surfacetype gepol_ses
| 17> rsolv 2.19
| 18> end
| 19>
| 20> * xyz 1 2
| 21> C           0.87721955970184     -1.20996210341370     -0.00114251028656
| 22> C           1.22867095701627      0.17590272063415     -0.00092471281421
| 23> C           0.19429293870811      1.14281829112205     -0.00102239586650
| 24> C          -1.13197195811747      0.78681533222205     -0.00063846881880
| 25> C          -1.46664592271824     -0.60957921985085     -0.00036409628715
| 26> C          -0.43765173573983     -1.57690655989999     -0.00089994213469
| 27> H          -0.70944713803654     -2.62484351485609     -0.00070753151805
| 28> C          -2.88059729169912     -1.03307018747702      0.00075676547606
| 29> H          -2.98132411626939     -2.11548087818676     -0.00078867333362
| 30> H          -3.40473265028858     -0.62124725421179     -0.86856391435484
| 31> H          -3.40181104267977     -0.62445723345523      0.87344122063180
| 32> C          -2.20822581783345      1.81500259004710     -0.00037175054170
| 33> H          -2.85205732065366      1.70759027718409      0.87683729500448
| 34> H          -2.85390374500787      1.70584072354095     -0.87597703440387
| 35> H          -1.78882008599952      2.81907415545451     -0.00188412960968
| 36> H           0.47068687952919      2.19071343450304     -0.00145067104349
| 37> C           2.57614595296052      0.62247421593669      0.00033366292164
| 38> C           3.67610604990702     -0.18646918563231      0.00118982175465
| 39> H           3.60979089025452     -1.26629688619945     -0.00003716156364
| 40> H           4.66623914142931      0.24946044526317      0.00293842337002
| 41> H           2.72717236267435      1.69691097957696      0.00052907362996
| 42> H           1.64810089286234     -1.96771894230155     -0.00171977021184
| 43> *
| 44>
| 45>                          ****END OF INPUT****

CARTESIAN COORDINATES (ANGSTROEM)
---------------------------------
  C      0.877220   -1.209962   -0.001143
  C      1.228671    0.175903   -0.000925
  C      0.194293    1.142818   -0.001022
  C     -1.131972    0.786815   -0.000638
  C     -1.466646   -0.609579   -0.000364
  C     -0.437652   -1.576907   -0.000900
  H     -0.709447   -2.624844   -0.000708
  C     -2.880597   -1.033070    0.000757
  H     -2.981324   -2.115481   -0.000789
  H     -3.404733   -0.621247   -0.868564
  H     -3.401811   -0.624457    0.873441
  C     -2.208226    1.815003   -0.000372
  H     -2.852057    1.707590    0.876837
  H     -2.853904    1.705841   -0.875977
  H     -1.788820    2.819074   -0.001884
  H      0.470687    2.190713   -0.001451
  C      2.576146    0.622474    0.000334
  C      3.676106   -0.186469    0.001190
  H      3.609791   -1.266297   -0.000037
  H      4.666239    0.249460    0.002938
  H      2.727172    1.696911    0.000529
  H      1.648101   -1.967719   -0.001720

 Total Charge           Charge          ....    1
 Multiplicity           Mult            ....    2
 Number of Electrons    NEL             ....   71
 Basis Dimension        Dim             ....  736

ORBITAL ENERGIES
----------------
                 SPIN UP ORBITALS
  NO   OCC          E(Eh)            E(eV)
   0   1.0000     -10.109577      -275.0956
   1   1.0000     -10.104639      -274.9612
   2   1.0000     -10.089630      -274.5528
   3   1.0000     -10.088139      -274.5122
   4   1.0000     -10.086980      -274.4807
   5   1.0000     -10.083593      -274.3885
   6   1.0000     -10.071141      -274.0497
   7   1.0000     -10.068813      -273.9863
   8   1.0000     -10.044765      -273.3319
   9   1.0000     -10.039469      -273.1878
  10   1.0000      -0.876107       -23.8401
  11   1.0000      -0.816604       -22.2209
  12   1.0000      -0.770638       -20.9701
  13   1.0000      -0.755695       -20.5635
  14   1.0000      -0.698258       -19.0006
  15   1.0000      -0.668285       -18.1850
  16   1.0000      -0.611159       -16.6305
  17   1.0000      -0.599191       -16.3048
  18   1.0000      -0.544858       -14.8263
  19   1.0000      -0.502215       -13.6660
  20   1.0000      -0.484853       -13.1935
  21   1.0000      -0.451985       -12.2991
  22   1.0000      -0.433420       -11.7940
  23   1.0000      -0.428203       -11.6520
  24   1.0000      -0.416310       -11.3284
  25   1.0000      -0.409947       -11.1552
  26   1.0000      -0.385681       -10.4949
  27   1.0000      -0.380375       -10.3505
  28   1.0000      -0.376304       -10.2398
  29   1.0000      -0.372606       -10.1391
  30   1.0000      -0.361088        -9.8257
  31   1.0000      -0.339785        -9.2460
  32   1.0000      -0.329897        -8.9770
  33   1.0000      -0.316494        -8.6122
  34   1.0000      -0.268666        -7.3108
  35   1.0000      -0.253609        -6.9011
  36   0.0000      -0.120314        -3.2739
  37   0.0000      -0.062584        -1.7030
  38   0.0000      -0.022616        -0.6154
  39   0.0000       0.003911         0.1064
  40   0.0000       0.015028         0.4089

                 SPIN DOWN ORBITALS
  NO   OCC          E(Eh)            E(eV)
   0   1.0000     -10.104171      -274.9485
   1   1.0000     -10.101040      -274.8633
   2   1.0000     -10.088277      -274.5160
   3   1.0000     -10.087534      -274.4958
   4   1.0000     -10.081796      -274.3396
   5   1.0000     -10.081243      -274.3246
   6   1.0000     -10.071347      -274.0553
   7   1.0000     -10.069765      -274.0122
   8   1.0000     -10.044847      -273.3342
   9   1.0000     -10.039470      -273.1879
  10   1.0000      -0.868837       -23.6423
  11   1.0000      -0.807928       -21.9848
  12   1.0000      -0.769178       -20.9304
  13   1.0000      -0.745133       -20.2761
  14   1.0000      -0.693664       -18.8756
  15   1.0000      -0.662263       -18.0211
  16   1.0000      -0.605784       -16.4842
  17   1.0000      -0.595196       -16.1961
  18   1.0000      -0.539985       -14.6937
  19   1.0000      -0.501170       -13.6375
  20   1.0000      -0.482716       -13.1354
  21   1.0000      -0.448889       -12.2149
  22   1.0000      -0.425911       -11.5896
  23   1.0000      -0.422639       -11.5006
  24   1.0000      -0.414532       -11.2800
  25   1.0000      -0.409319       -11.1381
  26   1.0000      -0.381020       -10.3681
  27   1.0000      -0.374659       -10.1950
  28   1.0000      -0.372260       -10.1297
  29   1.0000      -0.366431        -9.9711
  30   1.0000      -0.359621        -9.7858
  31   1.0000      -0.339106        -9.2275
  32   1.0000      -0.328045        -8.9265
  33   1.0000      -0.297175        -8.0865
  34   1.0000      -0.263658        -7.1745
  35   0.0000      -0.210467        -5.7271
  36   0.0000      -0.086716        -2.3597
  37   0.0000      -0.054369        -1.4795
  38   0.0000      -0.000461        -0.0126
  39   0.0000       0.004972         0.1353

MULLIKEN ATOMIC CHARGES AND SPIN POPULATIONS
--------------------------------------------
   0 C :   -0.113891    0.129254
   1 C :    2.228084    0.272749
   2 C :   -1.040057   -0.027334
   3 C :    0.778047    0.043498
   4 C :    0.969770    0.346156
   5 C :   -1.184848   -0.098545
   6 H :   -0.035312   -0.005131
   7 C :   -0.643518   -0.053969
   8 H :    0.062630   -0.008360
   9 H :    0.224796    0.032669
  10 H :    0.225226    0.032891
  11 C :   -0.650182   -0.013645
  12 H :    0.212904    0.006977
  13 H :    0.212433    0.006983
  14 H :    0.079592   -0.000128
  15 H :   -0.419502    0.002382
  16 C :    0.092724   -0.054110
  17 C :   -0.871399    0.346770
  18 H :    0.211979   -0.009432
  19 H :    0.323984    0.062230
  20 H :    0.116968   -0.008414
  21 H :    0.219571   -0.003490
Sum of atomic charges         :    1.0000000

LOEWDIN ATOMIC CHARGES AND SPIN POPULATIONS
-------------------------------------------
   0 C :    0.285617    0.088962
   1 C :   -0.078448    0.118064
   2 C :    0.285579    0.029275
   3 C :   -0.044641    0.058352
   4 C :   -0.030258    0.158317
   5 C :    0.292409    0.037952
   6 H :   -0.153019   -0.004308
   7 C :    0.635486    0.053603
   8 H :   -0.154559    0.001380
   9 H :   -0.139027    0.013045
  10 H :   -0.138693    0.013110
  11 C :    0.621037    0.007484
  12 H :   -0.147622    0.002400
  13 H :   -0.147828    0.002397
  14 H :   -0.158723    0.000071
  15 H :   -0.150825   -0.000202
  16 C :    0.262134    0.073853
  17 C :    0.653564    0.232831
  18 H :   -0.191221    0.048711
  19 H :   -0.171842    0.053796
  20 H :   -0.161683   -0.002539
  21 H :   -0.167437    0.013447

  Mayer bond orders larger than 0.100000
B(  0-C ,  2-C ) :  -0.8761 B(  0-C ,  3-C ) :  -0.3218 B(  0-C ,  5-C ) :   0.7058
B(  0-C ,  6-H ) :  -0.1240 B(  0-C , 15-H ) :   0.1030 B(  0-C , 16-C ) :   0.2139
B(  0-C , 17-C ) :  -0.1354 B(  0-C , 18-H ) :  -0.1475 B(  0-C , 21-H ) :   1.4188
B(  1-C ,  2-C ) :  -0.7359 B(  1-C ,  3-C ) :   0.5139 B(  1-C ,  4-C ) :  -0.4815
B(  1-C ,  7-C ) :   0.1017 B(  1-C , 15-H ) :  -0.5230 B(  1-C , 17-C ) :  -0.1063
B(  2-C ,  3-C ) :   0.6738 B(  2-C ,  4-C ) :  -0.3476 B(  2-C ,  5-C ) :   0.1752
B(  2-C , 11-C ) :  -0.2819 B(  2-C , 14-H ) :  -0.1035 B(  2-C , 15-H ) :   2.4646
B(  2-C , 17-C ) :   0.1297 B(  2-C , 20-H ) :  -0.1338 B(  3-C ,  4-C ) :   1.2004
B(  3-C ,  5-C ) :   0.1659 B(  3-C ,  7-C ) :   0.1578 B(  3-C , 15-H ) :  -0.2419
B(  3-C , 16-C ) :   0.1166 B(  3-C , 20-H ) :   0.1493 B(  3-C , 21-H ) :  -0.2900
B(  4-C ,  5-C ) :   0.4082 B(  4-C ,  7-C ) :   0.2688 B(  4-C , 11-C ) :   0.3779
B(  4-C , 15-H ) :  -0.1081 B(  4-C , 16-C ) :   0.1789 B(  4-C , 21-H ) :  -0.1254
B(  5-C ,  6-H ) :   1.3328 B(  5-C ,  7-C ) :  -0.2221 B(  5-C , 17-C ) :  -0.1272
B(  5-C , 21-H ) :  -0.2082 B(  7-C ,  8-H ) :   1.1019 B(  7-C ,  9-H ) :   0.9713
B(  7-C , 10-H ) :   0.9707 B( 11-C , 12-H ) :   1.0040 B( 11-C , 13-H ) :   1.0043
B( 11-C , 14-H ) :   1.0566 B( 15-H , 16-C ) :  -0.2225 B( 15-H , 20-H ) :  -0.1162
B( 16-C , 17-C ) :   0.5926 B( 16-C , 20-H ) :   1.0449 B( 17-C , 18-H ) :   1.2051
B( 17-C , 19-H ) :   0.7791 B( 17-C , 20-H ) :  -0.2547

Dispersion correction           -0.007130696
FINAL SINGLE POINT ENERGY      -387.991052730049

DIPOLE MOMENT
-------------

Method             : SCF
Type of density    : Electron Density
Multiplicity       :   2
Irrep              :   0
Energy             :  -387.9839220344957766 Eh
Relativity type    :
Basis              : AO
                                X                 Y                 Z
Electronic contribution:      5.315327210      -1.200233292      -0.004419918
Nuclear contribution   :     -4.588071882       1.054441079       0.005384635
                        -----------------------------------------
Total Dipole Moment    :      0.727255328      -0.145792214       0.000964717
                        -----------------------------------------
Magnitude (a.u.)       :      0.741725429
Magnitude (Debye)      :      1.885316211

VIBRATIONAL FREQUENCIES
-----------------------

Scaling factor for frequencies =  1.000000000  (already applied!)

     0:       0.00 cm**-1
     1:       0.00 cm**-1
     2:       0.00 cm**-1
     3:       0.00 cm**-1
     4:       0.00 cm**-1
     5:       0.00 cm**-1
     6:      23.68 cm**-1
     7:      53.42 cm**-1
     8:     102.65 cm**-1
     9:     158.47 cm**-1
    10:     204.74 cm**-1
    11:     209.98 cm**-1
    12:     266.31 cm**-1
    13:     315.44 cm**-1
    14:     383.02 cm**-1
    15:     408.61 cm**-1
    16:     424.73 cm**-1
    17:     454.66 cm**-1
    18:     519.97 cm**-1
    19:     563.92 cm**-1
    20:     596.89 cm**-1
    21:     704.15 cm**-1
    22:     714.38 cm**-1
    23:     748.49 cm**-1
    24:     810.85 cm**-1
    25:     887.86 cm**-1
    26:     928.18 cm**-1
    27:     951.40 cm**-1
    28:     983.52 cm**-1
    29:     996.98 cm**-1
    30:    1000.92 cm**-1
    31:    1007.20 cm**-1
    32:    1012.31 cm**-1
    33:    1043.19 cm**-1
    34:    1059.00 cm**-1
    35:    1147.13 cm**-1
    36:    1199.65 cm**-1
    37:    1242.89 cm**-1
    38:    1262.42 cm**-1
    39:    1293.00 cm**-1
    40:    1319.81 cm**-1
    41:    1344.68 cm**-1
    42:    1375.18 cm**-1
    43:    1378.57 cm**-1
    44:    1418.77 cm**-1
    45:    1423.68 cm**-1
    46:    1439.85 cm**-1
    47:    1446.09 cm**-1
    48:    1463.48 cm**-1
    49:    1471.88 cm**-1
    50:    1493.73 cm**-1
    51:    1514.20 cm**-1
    52:    1567.06 cm**-1
    53:    1645.98 cm**-1
    54:    3010.70 cm**-1
    55:    3025.12 cm**-1
    56:    3057.00 cm**-1
    57:    3080.35 cm**-1
    58:    3133.85 cm**-1
    59:    3144.08 cm**-1
    60:    3158.15 cm**-1
    61:    3164.71 cm**-1
    62:    3175.95 cm**-1
    63:    3187.82 cm**-1
    64:    3212.49 cm**-1
    65:    3259.96 cm**-1

IR SPECTRUM
-----------

 Mode   freq       eps      Int      T**2         TX        TY        TZ
       cm**-1   L/(mol*cm) km/mol    a.u.
----------------------------------------------------------------------------
  6:     23.68   0.000382    1.93  0.005029  (-0.003091 -0.000268  0.070847)
  7:     53.42   0.000271    1.37  0.001583  ( 0.001489  0.000273  0.039762)
  8:    102.65   0.000003    0.02  0.000010  ( 0.000096  0.000104  0.003205)
  9:    158.47   0.000978    4.94  0.001926  (-0.000310  0.000488  0.043878)
 10:    204.74   0.000183    0.92  0.000279  (-0.000331 -0.000560 -0.016683)
 11:    209.98   0.000180    0.91  0.000268  ( 0.000427 -0.016312  0.001251)
 12:    266.31   0.000127    0.64  0.000149  ( 0.000248 -0.000088 -0.012184)
 13:    315.44   0.000031    0.16  0.000031  ( 0.002728 -0.004837 -0.000067)
 14:    383.02   0.000373    1.89  0.000304  (-0.014673  0.009428  0.000078)
 15:    408.61   0.002820   14.25  0.002154  ( 0.000226  0.000444 -0.046408)
 16:    424.73   0.000015    0.08  0.000011  (-0.003252  0.000665  0.000200)
 17:    454.66   0.000803    4.06  0.000551  (-0.000653  0.000024 -0.023464)
 18:    519.97   0.000869    4.39  0.000522  (-0.022301 -0.004938  0.000001)
 19:    563.92   0.000929    4.69  0.000514  ( 0.022248  0.004347  0.000023)
 20:    596.89   0.000264    1.34  0.000138  (-0.000810 -0.000116  0.011728)
 21:    704.15   0.002732   13.80  0.001211  (-0.000258  0.000060 -0.034793)
 22:    714.38   0.007201   36.39  0.003146  (-0.055311 -0.009292  0.000126)
 23:    748.49   0.000590    2.98  0.000246  ( 0.015313  0.003392  0.000068)
 24:    810.85   0.003831   19.36  0.001475  ( 0.000376  0.000059  0.038398)
 25:    887.86   0.000929    4.70  0.000327  ( 0.000206 -0.000034  0.018071)
 26:    928.18   0.002282   11.53  0.000767  ( 0.025315  0.011238 -0.000392)
 27:    951.40   0.014968   75.64  0.004909  ( 0.000501  0.000111 -0.070065)
 28:    983.52   0.003874   19.58  0.001229  ( 0.002219  0.000022 -0.034991)
 29:    996.98   0.000018    0.09  0.000006  ( 0.001774  0.000437  0.001491)
 30:   1000.92   0.012129   61.29  0.003781  ( 0.061419  0.002405 -0.001855)
 31:   1007.20   0.006425   32.47  0.001991  (-0.001322  0.000104 -0.044598)
 32:   1012.31   0.023230  117.40  0.007161  (-0.084605  0.001381 -0.001133)
 33:   1043.19   0.000710    3.59  0.000212  ( 0.001174  0.000033 -0.014522)
 34:   1059.00   0.000711    3.60  0.000210  ( 0.012850 -0.006671  0.000176)
 35:   1147.13   0.004052   20.48  0.001102  ( 0.020151 -0.026389 -0.000171)
 36:   1199.65   0.022955  116.00  0.005971  ( 0.076813  0.008425  0.000059)
 37:   1242.89   0.022882  115.64  0.005745  (-0.075671 -0.004364  0.000062)
 38:   1262.42   0.049996  252.66  0.012359  ( 0.111167 -0.000808  0.000016)
 39:   1293.00   0.039027  197.23  0.009419  ( 0.097040 -0.001501  0.000004)
 40:   1319.81   0.001490    7.53  0.000352  ( 0.014725 -0.011639 -0.000056)
 41:   1344.68   0.014879   75.19  0.003453  (-0.058312  0.007259  0.000274)
 42:   1375.18   0.003959   20.01  0.000898  ( 0.017685 -0.024198  0.000277)
 43:   1378.57   0.001684    8.51  0.000381  (-0.018125  0.007262 -0.000115)
 44:   1418.77   0.007564   38.22  0.001664  (-0.035313 -0.020391  0.000901)
 45:   1423.68   0.002276   11.50  0.000499  (-0.001072 -0.000267 -0.022309)
 46:   1439.85   0.002479   12.53  0.000537  ( 0.018031  0.014539  0.000911)
 47:   1446.09   0.005719   28.90  0.001234  (-0.000442  0.000046  0.035127)
 48:   1463.48   0.021964  110.99  0.004683  ( 0.066676 -0.015410  0.000365)
 49:   1471.88   0.054005  272.92  0.011450  ( 0.106932  0.003963 -0.000133)
 50:   1493.73   0.090283  456.26  0.018862  (-0.137327 -0.001718 -0.000017)
 51:   1514.20   0.049605  250.68  0.010223  (-0.096472  0.030271 -0.000119)
 52:   1567.06   0.047096  238.00  0.009379  ( 0.084755  0.046852  0.000058)
 53:   1645.98   0.010073   50.91  0.001910  ( 0.035438  0.025573 -0.000042)
 54:   3010.70   0.004580   23.15  0.000475  (-0.021309 -0.004537  0.000220)
 55:   3025.12   0.000319    1.61  0.000033  (-0.004044  0.004069  0.000103)
 56:   3057.00   0.000085    0.43  0.000009  ( 0.000475  0.000077  0.002901)
 57:   3080.35   0.001323    6.68  0.000134  ( 0.000030 -0.000039  0.011575)
 58:   3133.85   0.003905   19.74  0.000389  ( 0.003460 -0.019414 -0.000036)
 59:   3144.08   0.008272   41.80  0.000821  ( 0.022711  0.017470 -0.000019)
 60:   3158.15   0.001820    9.20  0.000180  (-0.013239  0.002131 -0.000011)
 61:   3164.71   0.002310   11.68  0.000228  ( 0.014056  0.005500  0.000079)
 62:   3175.95   0.001101    5.56  0.000108  ( 0.000770  0.010372  0.000108)
 63:   3187.82   0.002164   10.94  0.000212  ( 0.012130  0.008045  0.000073)
 64:   3212.49   0.000168    0.85  0.000016  (-0.001988  0.003512  0.000012)
 65:   3259.96   0.000015    0.07  0.000001  ( 0.000139 -0.001181  0.000039)

--------------------------
THERMOCHEMISTRY AT 298.15K
--------------------------

Temperature         ...   298.15 K
Pressure            ...     1.00 atm
Total Mass          ...   132.21 AMU
Quasi RRHO          ...     True
Cut-Off Frequency   ...     1.00 cm^-1

Throughout the following assumptions are being made:
  (1) The electronic state is orbitally nondegenerate
      but the spin degeneracy is treated
  (2) There are no thermally accessible electronically excited states
  (3) Hindered rotations indicated by low frequency modes are not
      treated as such but are treated as vibrations and this may
      cause some error
  (4) All equations used are the standard statistical mechanics
      equations for an ideal gas
  (5) All vibrations are strictly harmonic

freq.      23.68  E(vib)   ...       0.56
freq.      53.42  E(vib)   ...       0.52
freq.     102.65  E(vib)   ...       0.46
freq.     158.47  E(vib)   ...       0.39
freq.     204.74  E(vib)   ...       0.35
freq.     209.98  E(vib)   ...       0.34
freq.     266.31  E(vib)   ...       0.29
freq.     315.44  E(vib)   ...       0.25
freq.     383.02  E(vib)   ...       0.20
freq.     408.61  E(vib)   ...       0.19
freq.     424.73  E(vib)   ...       0.18
freq.     454.66  E(vib)   ...       0.16
freq.     519.97  E(vib)   ...       0.13
freq.     563.92  E(vib)   ...       0.11
freq.     596.89  E(vib)   ...       0.10
freq.     704.15  E(vib)   ...       0.07
freq.     714.38  E(vib)   ...       0.07
freq.     748.49  E(vib)   ...       0.06
freq.     810.85  E(vib)   ...       0.05
freq.     887.86  E(vib)   ...       0.04
freq.     928.18  E(vib)   ...       0.03
freq.     951.40  E(vib)   ...       0.03
freq.     983.52  E(vib)   ...       0.02
freq.     996.98  E(vib)   ...       0.02
freq.    1000.92  E(vib)   ...       0.02
freq.    1007.20  E(vib)   ...       0.02
freq.    1012.31  E(vib)   ...       0.02
freq.    1043.19  E(vib)   ...       0.02
freq.    1059.00  E(vib)   ...       0.02
freq.    1147.13  E(vib)   ...       0.01
freq.    1199.65  E(vib)   ...       0.01
freq.    1242.89  E(vib)   ...       0.01
freq.    1262.42  E(vib)   ...       0.01
freq.    1293.00  E(vib)   ...       0.01
freq.    1319.81  E(vib)   ...       0.01
freq.    1344.68  E(vib)   ...       0.01
freq.    1375.18  E(vib)   ...       0.01
freq.    1378.57  E(vib)   ...       0.01
freq.    1418.77  E(vib)   ...       0.00
freq.    1423.68  E(vib)   ...       0.00
freq.    1439.85  E(vib)   ...       0.00
freq.    1446.09  E(vib)   ...       0.00
freq.    1463.48  E(vib)   ...       0.00
freq.    1471.88  E(vib)   ...       0.00
freq.    1493.73  E(vib)   ...       0.00
freq.    1514.20  E(vib)   ...       0.00
freq.    1567.06  E(vib)   ...       0.00
freq.    1645.98  E(vib)   ...       0.00
freq.    3010.70  E(vib)   ...       0.00
freq.    3025.12  E(vib)   ...       0.00
freq.    3057.00  E(vib)   ...       0.00
freq.    3080.35  E(vib)   ...       0.00
freq.    3133.85  E(vib)   ...       0.00
freq.    3144.08  E(vib)   ...       0.00
freq.    3158.15  E(vib)   ...       0.00
freq.    3164.71  E(vib)   ...       0.00
freq.    3175.95  E(vib)   ...       0.00
freq.    3187.82  E(vib)   ...       0.00
freq.    3212.49  E(vib)   ...       0.00
freq.    3259.96  E(vib)   ...       0.00

------------
INNER ENERGY
------------

The inner energy is: U= E(el) + E(ZPE) + E(vib) + E(rot) + E(trans)
    E(el)   - is the total energy from the electronic structure calculation
              = E(kin-el) + E(nuc-el) + E(el-el) + E(nuc-nuc)
    E(ZPE)  - the the zero temperature vibrational energy from the frequency calculation
    E(vib)  - the the finite temperature correction to E(ZPE) due to population
              of excited vibrational states
    E(rot)  - is the rotational thermal energy
    E(trans)- is the translational thermal energy

Summary of contributions to the inner energy U:
Electronic energy                ...   -387.99105273 Eh
Zero point energy                ...      0.18588298 Eh     116.64 kcal/mol
Thermal vibrational correction   ...      0.00771469 Eh       4.84 kcal/mol
Thermal rotational correction    ...      0.00141627 Eh       0.89 kcal/mol
Thermal translational correction ...      0.00141627 Eh       0.89 kcal/mol
-----------------------------------------------------------------------
Total thermal energy                   -387.79462252 Eh

Summary of corrections to the electronic energy:
(perhaps to be used in another calculation)
Total thermal correction                  0.01054723 Eh       6.62 kcal/mol
Non-thermal (ZPE) correction              0.18588298 Eh     116.64 kcal/mol
-----------------------------------------------------------------------
Total correction                          0.19643021 Eh     123.26 kcal/mol

--------
ENTHALPY
--------

The enthalpy is H = U + kB*T
                kB is Boltzmann's constant
Total thermal energy              ...   -387.79462252 Eh
Thermal Enthalpy correction       ...      0.00094421 Eh       0.59 kcal/mol
-----------------------------------------------------------------------
Total Enthalpy                    ...   -387.79367831 Eh

Note: Only C1 symmetry has been detected, increase convergence thresholds
      if your molecule has a higher symmetry. Symmetry factor of 1.0 is
      used for the rotational entropy correction.

Note: Rotational entropy computed according to Herzberg
Infrared and Raman Spectra, Chapter V,1, Van Nostrand Reinhold, 1945
Point Group:  C1, Symmetry Number:   1
Rotational constants in cm-1:     0.096138     0.029434     0.022722

Vibrational entropy computed according to the QRRHO of S. Grimme
Chem.Eur.J. 2012 18 9955 using a reference frequency of 100.0 cm-1

-------
ENTROPY
-------

The entropy contributions are T*S = T*(S(el)+S(vib)+S(rot)+S(trans))
     S(el)   - electronic entropy
     S(vib)  - vibrational entropy
     S(rot)  - rotational entropy
     S(trans)- translational entropy
The entropies will be listed as multiplied by the temperature to get
units of energy

Electronic entropy                ...      0.00065446 Eh      0.41 kcal/mol
Vibrational entropy               ...      0.01344555 Eh      8.44 kcal/mol
Rotational entropy                ...      0.01406743 Eh      8.83 kcal/mol
Translational entropy             ...      0.01926665 Eh     12.09 kcal/mol
-----------------------------------------------------------------------
Final entropy term                ...      0.04743408 Eh     29.77 kcal/mol

In case the symmetry of your molecule has not been determined correctly
or in case you have a reason to use a different symmetry number we print
out the resulting rotational entropy values for sn=1,12:

                             ****ORCA TERMINATED NORMALLY****
TOTAL RUN TIME: 0 days 1 hours 5 minutes 4 seconds 844 msec
