                         Program Version 6.0.0  -   RELEASE  -
|  1> !TPSSh aug-cc-pVTZ d3 TightSCF SlowConv RIJCOSX defgrid2
|  2>
|  3> %pal
|  4> nprocs 15
|  5> end
|  6>
|  7> %scf
|  8> MaxIter 1500
|  9> end
| 10>
| 11> %maxcore 3500
| 12>
| 13> !CPCM
| 14> %cpcm smd true
| 15> SMDsolvent "WATER"
| 16> surfacetype gepol_ses
| 17> rsolv 1.40
| 18> end
| 19>
| 20> * xyz 1 1
| 21> O           1.67418114371668      3.37941862349945      1.15434517451953
| 22> N           2.62064316767579      2.68353532320648      1.21821077363263
| 23> C           3.73993026379150      2.91054121006730      0.20970750682041
| 24> C           4.36130392564807      1.55615394201201     -0.16493097978128
| 25> C           4.62693950470140      0.69901335740602      1.05364249756333
| 26> C           3.36304153274566      0.38280475677984      1.82347271406070
| 27> C           2.67247724345731      1.65441275633349      2.34006156392482
| 28> C           4.77144659115805      3.82229180911963      0.90254364472309
| 29> C           3.13466064770778      3.61114644043461     -0.99676243427434
| 30> C           3.47911508845757      2.30037383127262      3.48367565566839
| 31> C           1.24267102320542      1.38466686141498      2.78223585653897
| 32> H           5.30435815962353      1.74905887837014     -0.69848543170310
| 33> H           3.68229748767712      1.01484427915689     -0.84850427599189
| 34> H           3.60305334396738     -0.25238254910522      2.68961476485432
| 35> H           2.66820679637278     -0.17392576731557      1.16878669341899
| 36> H           4.29271611598733      4.70860976879227      1.34923722277333
| 37> H           5.37253037929227      3.29729158675115      1.65830335398642
| 38> H           5.45774493444870      4.16825914256566      0.11223951897270
| 39> H           2.78695679630107      4.62736503748115     -0.75666206631619
| 40> H           2.29625873974227      3.03524814826618     -1.42272318664526
| 41> H           3.92087891841351      3.68882501387840     -1.76468511803900
| 42> H           3.10731631344064      3.31044562450783      3.71967690908610
| 43> H           4.55901147845801      2.33249422618085      3.28233095765611
| 44> H           3.32267627795631      1.66477199454961      4.37074941627309
| 45> H           0.78000313618024      2.26411165418521      3.25536747289543
| 46> H           0.61113911289273      1.05517880381548      1.94035363615987
| 47> H           1.27425600304513      0.57114720607980      3.52446186259019
| 48> O           5.72044769993566      0.34198636029372      1.39209682163264
| 49> *
| 50>
| 51>                          ****END OF INPUT****

CARTESIAN COORDINATES (ANGSTROEM)
---------------------------------
  O      1.674181    3.379419    1.154345
  N      2.620643    2.683535    1.218211
  C      3.739930    2.910541    0.209708
  C      4.361304    1.556154   -0.164931
  C      4.626940    0.699013    1.053642
  C      3.363042    0.382805    1.823473
  C      2.672477    1.654413    2.340062
  C      4.771447    3.822292    0.902544
  C      3.134661    3.611146   -0.996762
  C      3.479115    2.300374    3.483676
  C      1.242671    1.384667    2.782236
  H      5.304358    1.749059   -0.698485
  H      3.682297    1.014844   -0.848504
  H      3.603053   -0.252383    2.689615
  H      2.668207   -0.173926    1.168787
  H      4.292716    4.708610    1.349237
  H      5.372530    3.297292    1.658303
  H      5.457745    4.168259    0.112240
  H      2.786957    4.627365   -0.756662
  H      2.296259    3.035248   -1.422723
  H      3.920879    3.688825   -1.764685
  H      3.107316    3.310446    3.719677
  H      4.559011    2.332494    3.282331
  H      3.322676    1.664772    4.370749
  H      0.780003    2.264112    3.255367
  H      0.611139    1.055179    1.940354
  H      1.274256    0.571147    3.524462
  O      5.720448    0.341986    1.392097

 Total Charge           Charge          ....    1
 Multiplicity           Mult            ....    1
 Number of Electrons    NEL             ....   92
 Basis Dimension        Dim             ....  920

ORBITAL ENERGIES
----------------

  NO   OCC          E(Eh)            E(eV)
   0   2.0000     -19.194030      -522.2961
   1   2.0000     -19.076195      -519.0897
   2   2.0000     -14.489358      -394.2755
   3   2.0000     -10.227386      -278.3013
   4   2.0000     -10.219503      -278.0868
   5   2.0000     -10.219481      -278.0862
   6   2.0000     -10.146869      -276.1104
   7   2.0000     -10.146858      -276.1100
   8   2.0000     -10.137914      -275.8667
   9   2.0000     -10.137842      -275.8647
  10   2.0000     -10.127019      -275.5702
  11   2.0000     -10.126995      -275.5696
  12   2.0000      -1.249193       -33.9923
  13   2.0000      -1.058187       -28.7947
  14   2.0000      -0.909329       -24.7441
  15   2.0000      -0.847889       -23.0722
  16   2.0000      -0.768418       -20.9097
  17   2.0000      -0.740226       -20.1426
  18   2.0000      -0.704557       -19.1720
  19   2.0000      -0.703360       -19.1394
  20   2.0000      -0.693405       -18.8685
  21   2.0000      -0.640504       -17.4290
  22   2.0000      -0.586377       -15.9561
  23   2.0000      -0.564882       -15.3712
  24   2.0000      -0.545002       -14.8303
  25   2.0000      -0.523601       -14.2479
  26   2.0000      -0.502482       -13.6732
  27   2.0000      -0.475550       -12.9404
  28   2.0000      -0.469864       -12.7856
  29   2.0000      -0.457451       -12.4479
  30   2.0000      -0.441509       -12.0141
  31   2.0000      -0.431227       -11.7343
  32   2.0000      -0.412744       -11.2313
  33   2.0000      -0.409835       -11.1522
  34   2.0000      -0.400752       -10.9050
  35   2.0000      -0.400398       -10.8954
  36   2.0000      -0.388754       -10.5785
  37   2.0000      -0.381203       -10.3731
  38   2.0000      -0.377175       -10.2634
  39   2.0000      -0.375975       -10.2308
  40   2.0000      -0.362297        -9.8586
  41   2.0000      -0.356423        -9.6988
  42   2.0000      -0.353995        -9.6327
  43   2.0000      -0.349675        -9.5151
  44   2.0000      -0.318183        -8.6582
  45   2.0000      -0.260176        -7.0798
  46   0.0000      -0.182539        -4.9671
  47   0.0000      -0.066237        -1.8024
  48   0.0000      -0.005522        -0.1503
  49   0.0000       0.007977         0.2171
  50   0.0000       0.009414         0.2562

MULLIKEN ATOMIC CHARGES
-----------------------
   0 O :   -0.989719
   1 N :    0.867202
   2 C :    1.305007
   3 C :   -0.043115
   4 C :    1.387098
   5 C :   -0.049064
   6 C :    1.280212
   7 C :   -0.296509
   8 C :   -0.624114
   9 C :   -0.290358
  10 C :   -0.626625
  11 H :   -0.115909
  12 H :    0.081472
  13 H :   -0.120696
  14 H :    0.085140
  15 H :    0.056360
  16 H :    0.138854
  17 H :   -0.152948
  18 H :    0.051002
  19 H :    0.115912
  20 H :   -0.000704
  21 H :    0.058264
  22 H :    0.138129
  23 H :   -0.153418
  24 H :    0.050280
  25 H :    0.113722
  26 H :    0.002385
  27 O :   -1.267860
Sum of atomic charges:    1.0000000

LOEWDIN ATOMIC CHARGES
----------------------
   0 O :    0.660290
   1 N :    0.009575
   2 C :   -0.366924
   3 C :    0.329324
   4 C :   -0.502987
   5 C :    0.329341
   6 C :   -0.367234
   7 C :    0.635719
   8 C :    0.598760
   9 C :    0.635753
  10 C :    0.598840
  11 H :   -0.116670
  12 H :   -0.105502
  13 H :   -0.116459
  14 H :   -0.105462
  15 H :   -0.121022
  16 H :   -0.164330
  17 H :   -0.120691
  18 H :   -0.145863
  19 H :   -0.133254
  20 H :   -0.129228
  21 H :   -0.121170
  22 H :   -0.164688
  23 H :   -0.120440
  24 H :   -0.145582
  25 H :   -0.133143
  26 H :   -0.129511
  27 O :    0.512553

  Mayer bond orders larger than 0.100000
B(  0-O ,  1-N ) :   0.4205 B(  1-N ,  2-C ) :   0.7805 B(  1-N ,  3-C ) :   0.1808
B(  1-N ,  5-C ) :   0.1800 B(  1-N ,  6-C ) :   0.7893 B(  1-N ,  7-C ) :   0.1144
B(  1-N ,  9-C ) :   0.1091 B(  2-C ,  3-C ) :   0.7427 B(  2-C ,  7-C ) :   0.6921
B(  2-C ,  8-C ) :   0.7250 B(  2-C , 12-H ) :   0.1120 B(  3-C ,  4-C ) :   0.9267
B(  3-C ,  5-C ) :   0.1207 B(  3-C , 11-H ) :   0.9496 B(  3-C , 12-H ) :   0.8936
B(  3-C , 27-O ) :   0.3121 B(  4-C ,  5-C ) :   0.9231 B(  4-C , 27-O ) :  -0.3689
B(  5-C ,  6-C ) :   0.7355 B(  5-C , 13-H ) :   0.9556 B(  5-C , 14-H ) :   0.8944
B(  5-C , 27-O ) :   0.3158 B(  6-C ,  9-C ) :   0.7037 B(  6-C , 10-C ) :   0.7329
B(  6-C , 14-H ) :   0.1104 B(  7-C ,  8-C ) :   0.1011 B(  7-C , 15-H ) :   0.9514
B(  7-C , 16-H ) :   0.9325 B(  7-C , 17-H ) :   1.1323 B(  8-C , 18-H ) :   0.9997
B(  8-C , 19-H ) :   0.9658 B(  8-C , 20-H ) :   1.0925 B(  9-C , 21-H ) :   0.9499
B(  9-C , 22-H ) :   0.9341 B(  9-C , 23-H ) :   1.1301 B( 10-C , 24-H ) :   0.9995
B( 10-C , 25-H ) :   0.9700 B( 10-C , 26-H ) :   1.0905

Dispersion correction           -0.037946704
FINAL SINGLE POINT ENERGY      -557.819235520330

DIPOLE MOMENT
-------------

Method             : SCF
Type of density    : Electron Density
Multiplicity       :   1
Irrep              :   0
Energy             :  -557.7812888166706671 Eh
Relativity type    :
Basis              : AO
                                X                 Y                 Z
Electronic contribution:      0.319454705      -2.674220643      -1.408050675
Nuclear contribution   :     -1.867094982       3.503684408       1.120844434
                        -----------------------------------------
Total Dipole Moment    :     -1.547640277       0.829463765      -0.287206241
                        -----------------------------------------
Magnitude (a.u.)       :      1.779238036
Magnitude (Debye)      :      4.522463681

Rotational constants in cm-1:             0.036291             0.035500             0.023692
Rotational constants in MHz :          1087.981132          1064.262103           710.263902

                             ****ORCA TERMINATED NORMALLY****
TOTAL RUN TIME: 0 days 0 hours 7 minutes 23 seconds 599 msec
