                         Program Version 6.0.0  -   RELEASE  -
|  1> !B3LYP aug-cc-pVTZ d3 TightSCF SlowConv RIJCOSX defgrid2
|  2>
|  3> %pal
|  4> nprocs 15
|  5> end
|  6>
|  7> %scf
|  8> MaxIter 1500
|  9> end
| 10>
| 11> %maxcore 3500
| 12>
| 13> !CPCM
| 14> %cpcm smd true
| 15> SMDsolvent "WATER"
| 16> surfacetype gepol_ses
| 17> rsolv 1.40
| 18> end
| 19>
| 20> * xyz -1 2
| 21> C          -0.71119473453608     -1.27753769603753     -1.66469193495667
| 22> C          -0.84757971737407     -1.37051300939389      2.56012596471587
| 23> C           0.17600407523538     -0.66718968097552      3.30203602345821
| 24> C           0.07441786205000     -0.73736210099662      4.72686229958031
| 25> C          -0.95819946382070     -1.44732964560191      5.30922921995402
| 26> C          -1.89246898961745     -2.08918221632698      4.48282869513414
| 27> N          -1.82946922247699     -2.04538372747969      3.14996632780079
| 28> H           0.82375813463839     -0.22230666320522      5.33950916179957
| 29> H          -1.05139748109670     -1.51180696271490      6.40034489381934
| 30> H          -2.72424323526883     -2.66100937066717      4.91891129019417
| 31> C          -0.79539610804297     -1.33457211558685      1.08568997656786
| 32> C           0.27704054129144     -0.59784286447255      0.45308262509050
| 33> C           0.27660122861131     -0.59863568883798     -0.97709504218512
| 34> C          -1.70061257174833     -1.95699542487128     -0.93863375126110
| 35> N          -1.73203419494814     -1.97823597597462      0.39590607204878
| 36> H           1.06664268699891     -0.05607062090082     -1.50961690897062
| 37> H          -0.72694279099019     -1.28881726054281     -2.76150198645861
| 38> H          -2.49859691297974     -2.50535045021093     -1.45973231485977
| 39> C           1.19223786884036      0.03130278829810      2.63097992514689
| 40> C           1.24199802211239      0.06547304417526      1.22748014190895
| 41> H           1.95294993788081      0.55389136062698      3.22288120162125
| 42> H           2.04173228124121      0.61487911869694      0.71689035185124
| 43> *
| 44>
| 45>                          ****END OF INPUT****

CARTESIAN COORDINATES (ANGSTROEM)
---------------------------------
  C     -0.711195   -1.277538   -1.664692
  C     -0.847580   -1.370513    2.560126
  C      0.176004   -0.667190    3.302036
  C      0.074418   -0.737362    4.726862
  C     -0.958199   -1.447330    5.309229
  C     -1.892469   -2.089182    4.482829
  N     -1.829469   -2.045384    3.149966
  H      0.823758   -0.222307    5.339509
  H     -1.051397   -1.511807    6.400345
  H     -2.724243   -2.661009    4.918911
  C     -0.795396   -1.334572    1.085690
  C      0.277041   -0.597843    0.453083
  C      0.276601   -0.598636   -0.977095
  C     -1.700613   -1.956995   -0.938634
  N     -1.732034   -1.978236    0.395906
  H      1.066643   -0.056071   -1.509617
  H     -0.726943   -1.288817   -2.761502
  H     -2.498597   -2.505350   -1.459732
  C      1.192238    0.031303    2.630980
  C      1.241998    0.065473    1.227480
  H      1.952950    0.553891    3.222881
  H      2.041732    0.614879    0.716890

 Total Charge           Charge          ....   -1
 Multiplicity           Mult            ....    2
 Number of Electrons    NEL             ....   95
 Basis Dimension        Dim             ....  828

ORBITAL ENERGIES
----------------
                 SPIN UP ORBITALS
  NO   OCC          E(Eh)            E(eV)
   0   1.0000     -14.290631      -388.8678
   1   1.0000     -14.290603      -388.8671
   2   1.0000     -10.192089      -277.3408
   3   1.0000     -10.191744      -277.3315
   4   1.0000     -10.177804      -276.9521
   5   1.0000     -10.177787      -276.9517
   6   1.0000     -10.167811      -276.6802
   7   1.0000     -10.167770      -276.6791
   8   1.0000     -10.163635      -276.5666
   9   1.0000     -10.163589      -276.5653
  10   1.0000     -10.162599      -276.5384
  11   1.0000     -10.162533      -276.5366
  12   1.0000     -10.145260      -276.0666
  13   1.0000     -10.144707      -276.0515
  14   1.0000      -0.934783       -25.4367
  15   1.0000      -0.911510       -24.8035
  16   1.0000      -0.818018       -22.2594
  17   1.0000      -0.781546       -21.2669
  18   1.0000      -0.777292       -21.1512
  19   1.0000      -0.726627       -19.7725
  20   1.0000      -0.711399       -19.3581
  21   1.0000      -0.629564       -17.1313
  22   1.0000      -0.627086       -17.0639
  23   1.0000      -0.603641       -16.4259
  24   1.0000      -0.573854       -15.6154
  25   1.0000      -0.530964       -14.4483
  26   1.0000      -0.507851       -13.8193
  27   1.0000      -0.487710       -13.2713
  28   1.0000      -0.459379       -12.5004
  29   1.0000      -0.459287       -12.4978
  30   1.0000      -0.442754       -12.0479
  31   1.0000      -0.411671       -11.2021
  32   1.0000      -0.410107       -11.1596
  33   1.0000      -0.391627       -10.6567
  34   1.0000      -0.383035       -10.4229
  35   1.0000      -0.381598       -10.3838
  36   1.0000      -0.374517       -10.1911
  37   1.0000      -0.373179       -10.1547
  38   1.0000      -0.347778        -9.4635
  39   1.0000      -0.327345        -8.9075
  40   1.0000      -0.323790        -8.8108
  41   1.0000      -0.288648        -7.8545
  42   1.0000      -0.282012        -7.6739
  43   1.0000      -0.247720        -6.7408
  44   1.0000      -0.235877        -6.4185
  45   1.0000      -0.233129        -6.3438
  46   1.0000      -0.212186        -5.7739
  47   1.0000      -0.090532        -2.4635
  48   0.0000      -0.042819        -1.1652
  49   0.0000      -0.005655        -0.1539
  50   0.0000      -0.001696        -0.0461
  51   0.0000       0.007155         0.1947
  52   0.0000       0.011060         0.3009

                 SPIN DOWN ORBITALS
  NO   OCC          E(Eh)            E(eV)
   0   1.0000     -14.290538      -388.8653
   1   1.0000     -14.290510      -388.8645
   2   1.0000     -10.191521      -277.3254
   3   1.0000     -10.191172      -277.3159
   4   1.0000     -10.174812      -276.8707
   5   1.0000     -10.174790      -276.8701
   6   1.0000     -10.167826      -276.6806
   7   1.0000     -10.167786      -276.6795
   8   1.0000     -10.164563      -276.5918
   9   1.0000     -10.164519      -276.5906
  10   1.0000     -10.160014      -276.4680
  11   1.0000     -10.159948      -276.4662
  12   1.0000     -10.142614      -275.9945
  13   1.0000     -10.142042      -275.9790
  14   1.0000      -0.932730       -25.3809
  15   1.0000      -0.909282       -24.7428
  16   1.0000      -0.813748       -22.1432
  17   1.0000      -0.778192       -21.1757
  18   1.0000      -0.774305       -21.0699
  19   1.0000      -0.723582       -19.6897
  20   1.0000      -0.706566       -19.2266
  21   1.0000      -0.627517       -17.0756
  22   1.0000      -0.620074       -16.8731
  23   1.0000      -0.601426       -16.3656
  24   1.0000      -0.571440       -15.5497
  25   1.0000      -0.527682       -14.3590
  26   1.0000      -0.506011       -13.7693
  27   1.0000      -0.485909       -13.2223
  28   1.0000      -0.457488       -12.4489
  29   1.0000      -0.457313       -12.4441
  30   1.0000      -0.441354       -12.0099
  31   1.0000      -0.409403       -11.1404
  32   1.0000      -0.405632       -11.0378
  33   1.0000      -0.389924       -10.6104
  34   1.0000      -0.381580       -10.3833
  35   1.0000      -0.380039       -10.3414
  36   1.0000      -0.371686       -10.1141
  37   1.0000      -0.366530        -9.9738
  38   1.0000      -0.346091        -9.4176
  39   1.0000      -0.325877        -8.8676
  40   1.0000      -0.310374        -8.4457
  41   1.0000      -0.280926        -7.6444
  42   1.0000      -0.270677        -7.3655
  43   1.0000      -0.247374        -6.7314
  44   1.0000      -0.232858        -6.3364
  45   1.0000      -0.228151        -6.2083
  46   1.0000      -0.194622        -5.2959
  47   0.0000      -0.037229        -1.0131
  48   0.0000      -0.035262        -0.9595
  49   0.0000      -0.001690        -0.0460
  50   0.0000       0.005064         0.1378
  51   0.0000       0.007049         0.1918

MULLIKEN ATOMIC CHARGES AND SPIN POPULATIONS
--------------------------------------------
   0 C :   -0.270376   -0.074881
   1 C :    1.129405    0.038804
   2 C :    1.824865    0.016164
   3 C :   -1.289265    0.191777
   4 C :   -0.266425   -0.074976
   5 C :   -0.947178    0.232620
   6 N :   -0.872098   -0.008203
   7 H :    0.334897   -0.014276
   8 H :    0.310074   -0.003840
   9 H :    0.590014   -0.014193
  10 C :    1.116647    0.038922
  11 C :    1.821926    0.016174
  12 C :   -1.265153    0.191702
  13 C :   -0.930176    0.232018
  14 N :   -0.868371   -0.008360
  15 H :    0.342808   -0.014368
  16 H :    0.284819   -0.003967
  17 H :    0.587518   -0.014085
  18 C :   -1.367018    0.162154
  19 C :   -1.370397    0.162962
  20 H :    0.047637   -0.025997
  21 H :    0.055848   -0.026152
Sum of atomic charges         :   -1.0000000

LOEWDIN ATOMIC CHARGES AND SPIN POPULATIONS
-------------------------------------------
   0 C :    0.146651    0.027857
   1 C :   -0.313272    0.019139
   2 C :   -0.169041    0.052836
   3 C :    0.176619    0.087348
   4 C :    0.146622    0.027941
   5 C :   -0.051872    0.102977
   6 N :    0.317532    0.031527
   7 H :   -0.174291    0.018098
   8 H :   -0.178996   -0.004035
   9 H :   -0.211379    0.025360
  10 C :   -0.313211    0.019169
  11 C :   -0.168738    0.052801
  12 C :    0.177028    0.087222
  13 C :   -0.051768    0.102742
  14 N :    0.317669    0.031341
  15 H :   -0.174076    0.018074
  16 H :   -0.179038   -0.004039
  17 H :   -0.211370    0.025309
  18 C :    0.149272    0.119317
  19 C :    0.149441    0.119533
  20 H :   -0.191977    0.019707
  21 H :   -0.191806    0.019777

  Mayer bond orders larger than 0.100000
B(  0-C , 11-C ) :  -0.1741 B(  0-C , 12-C ) :   1.3003 B(  0-C , 13-C ) :   0.7184
B(  0-C , 14-N ) :  -0.2180 B(  0-C , 16-H ) :   0.9557 B(  1-C ,  2-C ) :   0.6691
B(  1-C ,  3-C ) :   0.5655 B(  1-C ,  5-C ) :  -0.2420 B(  1-C ,  6-N ) :  -0.7559
B(  1-C ,  9-H ) :   0.2141 B(  1-C , 10-C ) :   0.4598 B(  1-C , 11-C ) :   0.3903
B(  1-C , 13-C ) :   0.1116 B(  1-C , 14-N ) :   0.2693 B(  1-C , 18-C ) :  -0.4539
B(  2-C ,  3-C ) :  -0.4171 B(  2-C ,  4-C ) :  -0.1761 B(  2-C ,  5-C ) :  -0.5249
B(  2-C ,  9-H ) :   0.1278 B(  2-C , 10-C ) :   0.4028 B(  2-C , 11-C ) :  -0.3451
B(  2-C , 12-C ) :   0.1045 B(  2-C , 18-C ) :  -0.2052 B(  2-C , 20-H ) :  -0.2307
B(  3-C ,  4-C ) :   1.3452 B(  3-C ,  5-C ) :   0.4471 B(  3-C ,  7-H ) :   0.8662
B(  3-C ,  9-H ) :  -0.1063 B(  3-C , 11-C ) :   0.1041 B(  3-C , 18-C ) :   0.5487
B(  4-C ,  5-C ) :   0.7251 B(  4-C ,  6-N ) :  -0.2233 B(  4-C ,  8-H ) :   0.9155
B(  5-C ,  6-N ) :   1.9135 B(  5-C ,  9-H ) :   0.3322 B(  5-C , 10-C ) :   0.1137
B(  5-C , 19-C ) :   0.1521 B(  6-N ,  9-H ) :  -0.1021 B(  6-N , 10-C ) :   0.2605
B(  6-N , 14-N ) :  -0.3379 B( 10-C , 11-C ) :   0.6794 B( 10-C , 12-C ) :   0.5746
B( 10-C , 13-C ) :  -0.2454 B( 10-C , 14-N ) :  -0.7567 B( 10-C , 17-H ) :   0.2147
B( 10-C , 19-C ) :  -0.4528 B( 11-C , 12-C ) :  -0.3926 B( 11-C , 13-C ) :  -0.5183
B( 11-C , 17-H ) :   0.1283 B( 11-C , 19-C ) :  -0.2102 B( 11-C , 21-H ) :  -0.2304
B( 12-C , 13-C ) :   0.4485 B( 12-C , 15-H ) :   0.8472 B( 12-C , 17-H ) :  -0.1085
B( 12-C , 19-C ) :   0.5513 B( 13-C , 14-N ) :   1.8957 B( 13-C , 17-H ) :   0.3406
B( 13-C , 18-C ) :   0.1521 B( 14-N , 17-H ) :  -0.1066 B( 18-C , 19-C ) :   1.1400
B( 18-C , 20-H ) :   1.5214 B( 19-C , 21-H ) :   1.5137

Dispersion correction           -0.050043046
FINAL SINGLE POINT ENERGY      -571.597541496485

DIPOLE MOMENT
-------------

Method             : SCF
Type of density    : Electron Density
Multiplicity       :   2
Irrep              :   0
Energy             :  -571.5474984503950964 Eh
Relativity type    :
Basis              : AO
                                X                 Y                 Z
Electronic contribution:     -1.579197088      -1.083807032      -0.088538413
Nuclear contribution   :      2.898055306       1.988769949       0.150906317
                        -----------------------------------------
Total Dipole Moment    :      1.318858218       0.904962917       0.062367903
                        -----------------------------------------
Magnitude (a.u.)       :      1.600698171
Magnitude (Debye)      :      4.068651411

Rotational constants in cm-1:             0.053930             0.019113             0.014112
Rotational constants in MHz :          1616.774375           573.004447           423.065068

                             ****ORCA TERMINATED NORMALLY****
TOTAL RUN TIME: 0 days 0 hours 6 minutes 1 seconds 511 msec
