                         Program Version 6.0.0  -   RELEASE  -
|  1> !PBE0 opt def2-SV(p) d3 TightSCF SlowConv RIJCOSX defgrid2
|  2>
|  3> %pal
|  4> nprocs 8
|  5> end
|  6>
|  7> %scf
|  8> MaxIter 1500
|  9> end
| 10>
| 11> %maxcore 3500
| 12>
| 13> !CPCM
| 14> %cpcm smd true
| 15> SMDsolvent "MeCN"
| 16> surfacetype gepol_ses
| 17> rsolv 2.19
| 18> end
| 19>
| 20> * xyz -1 2
| 21>   C          -1.16908364743389     -1.25106043112589     -0.00046711885945
| 22>   C          -2.51558895662628     -0.94805778331016     -0.00048970260602
| 23>   C          -2.96951415995677      0.38786935411419     -0.00003437372110
| 24>   C          -1.99949719417351      1.41257476413842      0.00046952009611
| 25>   C          -0.64650719425624      1.13368035065037      0.00050575201273
| 26>   C          -0.16707249946699     -0.21739071251225      0.00002200149285
| 27>   C           1.18771930240505     -0.62830725495849      0.00000084051024
| 28>   O           1.69166054938407     -1.73447405522234     -0.00027921149921
| 29>   Cl          2.41415222066200      0.84117378911090      0.00088007792741
| 30>   H           0.08783721642061      1.94210741862158      0.00088650713536
| 31>   H          -2.32239478311716      2.46171169296406      0.00083360203305
| 32>   H          -4.03893270236722      0.62157662484535     -0.00006413910783
| 33>   H          -3.24555265578784     -1.76825494852385     -0.00088549117391
| 34>   H          -0.82790279568582     -2.29013880879190     -0.00083276424023
| 35> *
| 36>
| 37>                          ****END OF INPUT****
 Total Charge           Charge          ....   -1
 Multiplicity           Mult            ....    2
 Number of Electrons    NEL             ....   73
Dispersion correction           -0.014092198
FINAL SINGLE POINT ENERGY      -804.351646670812
Dispersion correction             ... done (  0.1 sec)
Dispersion correction           -0.014092798
FINAL SINGLE POINT ENERGY      -804.351702260756
Dispersion correction             ... done (  0.1 sec)
Dispersion correction           -0.014093713
FINAL SINGLE POINT ENERGY      -804.351725512587
Dispersion correction             ... done (  0.1 sec)
Dispersion correction           -0.014094590
FINAL SINGLE POINT ENERGY      -804.351728258842
Dispersion correction             ... done (  0.1 sec)
Dispersion correction           -0.014095394
FINAL SINGLE POINT ENERGY      -804.351729917943
Dispersion correction             ... done (  0.1 sec)
                    ***********************HURRAY********************

CARTESIAN COORDINATES (ANGSTROEM)
---------------------------------
  C     -1.165859   -1.251784   -0.000559
  C     -2.514491   -0.949322   -0.000681
  C     -2.965860    0.386927   -0.000150
  C     -2.000281    1.414560    0.000423
  C     -0.644919    1.136588    0.000567
  C     -0.165570   -0.215545    0.000291
  C      1.190577   -0.622545    0.000920
  O      1.690106   -1.735868   -0.000066
  Cl     2.410558    0.828102   -0.000309
  H      0.081977    1.952230    0.001174
  H     -2.325700    2.461656    0.001059
  H     -4.034837    0.619440   -0.000068
  H     -3.244331   -1.767908   -0.001161
  H     -0.832049   -2.293522   -0.000893

 Multiplicity           Mult            ....    2
 Number of Electrons    NEL             ....   73
 Basis Dimension        Dim             ....  140

ORBITAL ENERGIES
----------------
                 SPIN UP ORBITALS
  NO   OCC          E(Eh)            E(eV)
   0   1.0000    -101.623507     -2765.3162
   1   1.0000     -19.162111      -521.4276
   2   1.0000     -10.298416      -280.2342
   3   1.0000     -10.217449      -278.0309
   4   1.0000     -10.214525      -277.9514
   5   1.0000     -10.214162      -277.9415
   6   1.0000     -10.211111      -277.8584
   7   1.0000     -10.210696      -277.8472
   8   1.0000     -10.205859      -277.7156
   9   1.0000      -9.474442      -257.8127
  10   1.0000      -7.214117      -196.3061
  11   1.0000      -7.207381      -196.1228
  12   1.0000      -7.206832      -196.1079
  13   1.0000      -1.024087       -27.8668
  14   1.0000      -0.849352       -23.1120
  15   1.0000      -0.800768       -21.7900
  16   1.0000      -0.746783       -20.3210
  17   1.0000      -0.738490       -20.0953
  18   1.0000      -0.634127       -17.2555
  19   1.0000      -0.589927       -16.0527
  20   1.0000      -0.541794       -14.7430
  21   1.0000      -0.493009       -13.4155
  22   1.0000      -0.455711       -12.4005
  23   1.0000      -0.441778       -12.0214
  24   1.0000      -0.421460       -11.4685
  25   1.0000      -0.413894       -11.2626
  26   1.0000      -0.410915       -11.1816
  27   1.0000      -0.399400       -10.8682
  28   1.0000      -0.358895        -9.7660
  29   1.0000      -0.351127        -9.5547
  30   1.0000      -0.323626        -8.8063
  31   1.0000      -0.289532        -7.8786
  32   1.0000      -0.286854        -7.8057
  33   1.0000      -0.258173        -7.0253
  34   1.0000      -0.256887        -6.9903
  35   1.0000      -0.251895        -6.8544
  36   1.0000      -0.109234        -2.9724
  37   0.0000       0.016191         0.4406
  38   0.0000       0.062502         1.7008
  39   0.0000       0.075248         2.0476
  40   0.0000       0.099892         2.7182
  41   0.0000       0.133785         3.6405

                 SPIN DOWN ORBITALS
  NO   OCC          E(Eh)            E(eV)
   0   1.0000    -101.623468     -2765.3151
   1   1.0000     -19.155731      -521.2539
   2   1.0000     -10.293966      -280.1131
   3   1.0000     -10.216936      -278.0170
   4   1.0000     -10.216260      -277.9986
   5   1.0000     -10.215861      -277.9877
   6   1.0000     -10.207896      -277.7710
   7   1.0000     -10.207526      -277.7609
   8   1.0000     -10.200776      -277.5772
   9   1.0000      -9.474406      -257.8117
  10   1.0000      -7.214335      -196.3120
  11   1.0000      -7.206995      -196.1123
  12   1.0000      -7.206822      -196.1076
  13   1.0000      -1.012596       -27.5541
  14   1.0000      -0.844565       -22.9818
  15   1.0000      -0.797972       -21.7139
  16   1.0000      -0.740627       -20.1535
  17   1.0000      -0.734642       -19.9906
  18   1.0000      -0.621527       -16.9126
  19   1.0000      -0.588330       -16.0093
  20   1.0000      -0.538206       -14.6453
  21   1.0000      -0.487609       -13.2685
  22   1.0000      -0.452740       -12.3197
  23   1.0000      -0.436440       -11.8761
  24   1.0000      -0.419592       -11.4177
  25   1.0000      -0.410012       -11.1570
  26   1.0000      -0.395398       -10.7593
  27   1.0000      -0.386767       -10.5245
  28   1.0000      -0.348653        -9.4873
  29   1.0000      -0.341572        -9.2946
  30   1.0000      -0.322460        -8.7746
  31   1.0000      -0.286149        -7.7865
  32   1.0000      -0.280396        -7.6300
  33   1.0000      -0.247676        -6.7396
  34   1.0000      -0.246402        -6.7049
  35   1.0000      -0.231967        -6.3122
  36   0.0000      -0.018714        -0.5092
  37   0.0000       0.022262         0.6058
  38   0.0000       0.081621         2.2210
  39   0.0000       0.095397         2.5959
  40   0.0000       0.101618         2.7652

MULLIKEN ATOMIC CHARGES AND SPIN POPULATIONS
--------------------------------------------
   0 C :   -0.200165    0.240026
   1 C :   -0.135236   -0.143110
   2 C :   -0.196887    0.371666
   3 C :   -0.132753   -0.139221
   4 C :   -0.184761    0.234326
   5 C :   -0.017365    0.019743
   6 C :    0.030664    0.249642
   7 O :   -0.307120    0.206038
   8 Cl:   -0.317061   -0.002197
   9 H :    0.080788   -0.012564
  10 H :    0.099743    0.005124
  11 H :    0.095084   -0.021135
  12 H :    0.101765    0.005251
  13 H :    0.083303   -0.013588
Sum of atomic charges         :   -1.0000000

LOEWDIN ATOMIC CHARGES AND SPIN POPULATIONS
-------------------------------------------
   0 C :   -0.175253    0.185118
   1 C :   -0.164895   -0.073160
   2 C :   -0.235106    0.287565
   3 C :   -0.166434   -0.071089
   4 C :   -0.187469    0.177752
   5 C :   -0.171786    0.059082
   6 C :   -0.104330    0.237680
   7 O :   -0.274024    0.207978
   8 Cl:   -0.138944    0.006347
   9 H :    0.115778   -0.006006
  10 H :    0.127190    0.002385
  11 H :    0.124133   -0.009725
  12 H :    0.127742    0.002458
  13 H :    0.123398   -0.006387

  Mayer bond orders larger than 0.100000
B(  0-C ,  1-C ) :   1.4820 B(  0-C ,  5-C ) :   1.1968 B(  0-C , 13-H ) :   0.9651
B(  1-C ,  2-C ) :   1.2828 B(  1-C , 12-H ) :   0.9633 B(  2-C ,  3-C ) :   1.2887
B(  2-C , 11-H ) :   0.9690 B(  3-C ,  4-C ) :   1.4864 B(  3-C , 10-H ) :   0.9619
B(  4-C ,  5-C ) :   1.2053 B(  4-C ,  9-H ) :   0.9429 B(  5-C ,  6-C ) :   1.2302
B(  6-C ,  7-O ) :   1.9727 B(  6-C ,  8-Cl) :   0.8322

Dispersion correction           -0.014095421
FINAL SINGLE POINT ENERGY      -804.351729990290

DIPOLE MOMENT
-------------

Method             : SCF
Type of density    : Electron Density
Multiplicity       :   2
Irrep              :   0
Energy             :  -804.3376345695133978 Eh
Relativity type    :
Basis              : AO
                                X                 Y                 Z
Electronic contribution:     11.615318375       1.017426637      -0.000202479
Nuclear contribution   :    -12.991655555      -0.257688840       0.000569777
                        -----------------------------------------
Total Dipole Moment    :     -1.376337180       0.759737797       0.000367298
                        -----------------------------------------
Magnitude (a.u.)       :      1.572102315
Magnitude (Debye)      :      3.995966519

Rotational constants in cm-1:             0.100672             0.030472             0.023392
Rotational constants in MHz :          3018.082548           913.534441           701.269376

                             ****ORCA TERMINATED NORMALLY****
TOTAL RUN TIME: 0 days 0 hours 7 minutes 44 seconds 946 msec
