                         Program Version 6.0.0  -   RELEASE  -
|  1> !r2SCANh aug-cc-pVTZ d3 TightSCF SlowConv RIJCOSX defgrid2
|  2>
|  3> %pal
|  4> nprocs 4
|  5> end
|  6>
|  7> %scf
|  8> MaxIter 1500
|  9> end
| 10>
| 11> %maxcore 3000
| 12>
| 13> !CPCM
| 14> %cpcm smd true
| 15> SMDsolvent "MeCN"
| 16> surfacetype gepol_ses
| 17> rsolv 2.19
| 18> end
| 19>
| 20> * xyz 0 1
| 21> C          -0.49592270970750      1.20689036506876     -0.03130110264914
| 22> C          -1.88685532532519      1.19699753212455     -0.02314506175738
| 23> C          -2.60125975900159      0.00006218322477     -0.01917601586061
| 24> C          -1.88691051129410     -1.19690511286666     -0.02342725949643
| 25> C          -0.49597917173478     -1.20686134487156     -0.03159202517744
| 26> C           0.23868603456831     -0.00000172653772     -0.03609509009819
| 27> N           1.61626182022358     -0.00003106078646     -0.04469127469160
| 28> C           2.33183955992311      1.24597481666428     -0.04486665705751
| 29> H           3.41338665254704      1.04576364513015     -0.05323272367948
| 30> H           2.09753310431419      1.86285731996164     -0.93541110907656
| 31> H           2.10988003494310      1.85696995864317      0.85303702382408
| 32> C           2.33179343347907     -1.24606302804888     -0.04453387362300
| 33> H           3.41335300622739     -1.04589190456372     -0.05217912937846
| 34> H           2.10924230348017     -1.85707031820411      0.85320726726296
| 35> H           2.09802467704190     -1.86292175713273     -0.93524555395099
| 36> H           0.02088202703341     -2.16757371924062     -0.03449261449586
| 37> H          -2.42069136544180     -2.15271053199358     -0.02020648268014
| 38> H          -3.69441433931262      0.00008648240457     -0.01268972961591
| 39> H          -2.42058983097200      2.15282777025830     -0.01968144249458
| 40> H           0.02098115900830      2.16758023076587     -0.03391284530377
| 41> *
| 42>
| 43>                          ****END OF INPUT****

CARTESIAN COORDINATES (ANGSTROEM)
---------------------------------
  C     -0.495923    1.206890   -0.031301
  C     -1.886855    1.196998   -0.023145
  C     -2.601260    0.000062   -0.019176
  C     -1.886911   -1.196905   -0.023427
  C     -0.495979   -1.206861   -0.031592
  C      0.238686   -0.000002   -0.036095
  N      1.616262   -0.000031   -0.044691
  C      2.331840    1.245975   -0.044867
  H      3.413387    1.045764   -0.053233
  H      2.097533    1.862857   -0.935411
  H      2.109880    1.856970    0.853037
  C      2.331793   -1.246063   -0.044534
  H      3.413353   -1.045892   -0.052179
  H      2.109242   -1.857070    0.853207
  H      2.098025   -1.862922   -0.935246
  H      0.020882   -2.167574   -0.034493
  H     -2.420691   -2.152711   -0.020206
  H     -3.694414    0.000086   -0.012690
  H     -2.420590    2.152828   -0.019681
  H      0.020981    2.167580   -0.033913

 Total Charge           Charge          ....    0
 Multiplicity           Mult            ....    1
 Number of Electrons    NEL             ....   66
 Basis Dimension        Dim             ....  667

ORBITAL ENERGIES
----------------

  NO   OCC          E(Eh)            E(eV)
   0   2.0000     -14.322865      -389.7450
   1   2.0000     -10.197689      -277.4932
   2   2.0000     -10.175346      -276.8852
   3   2.0000     -10.175330      -276.8848
   4   2.0000     -10.156228      -276.3650
   5   2.0000     -10.156212      -276.3646
   6   2.0000     -10.149436      -276.1802
   7   2.0000     -10.149430      -276.1800
   8   2.0000     -10.144790      -276.0538
   9   2.0000      -0.952530       -25.9197
  10   2.0000      -0.842202       -22.9175
  11   2.0000      -0.743993       -20.2451
  12   2.0000      -0.741254       -20.1705
  13   2.0000      -0.710218       -19.3260
  14   2.0000      -0.648772       -17.6540
  15   2.0000      -0.590648       -16.0724
  16   2.0000      -0.564189       -15.3524
  17   2.0000      -0.516489       -14.0544
  18   2.0000      -0.467404       -12.7187
  19   2.0000      -0.460898       -12.5417
  20   2.0000      -0.450234       -12.2515
  21   2.0000      -0.430042       -11.7020
  22   2.0000      -0.406274       -11.0553
  23   2.0000      -0.403277       -10.9737
  24   2.0000      -0.383734       -10.4419
  25   2.0000      -0.374438       -10.1890
  26   2.0000      -0.361606        -9.8398
  27   2.0000      -0.356003        -9.6873
  28   2.0000      -0.339813        -9.2468
  29   2.0000      -0.316612        -8.6155
  30   2.0000      -0.279050        -7.5933
  31   2.0000      -0.249050        -6.7770
  32   2.0000      -0.185288        -5.0419
  33   0.0000      -0.020721        -0.5638
  34   0.0000      -0.002299        -0.0626
  35   0.0000       0.007532         0.2050
  36   0.0000       0.023186         0.6309
  37   0.0000       0.025418         0.6916

MULLIKEN ATOMIC CHARGES
-----------------------
   0 C :   -0.625712
   1 C :   -0.584991
   2 C :   -0.569820
   3 C :   -0.584566
   4 C :   -0.625970
   5 C :    1.513868
   6 N :   -0.124343
   7 C :   -0.898044
   8 H :    0.314589
   9 H :    0.223383
  10 H :    0.225019
  11 C :   -0.898108
  12 H :    0.315041
  13 H :    0.224818
  14 H :    0.223586
  15 H :    0.291972
  16 H :    0.393968
  17 H :    0.499045
  18 H :    0.393278
  19 H :    0.292989
Sum of atomic charges:   -0.0000000

LOEWDIN ATOMIC CHARGES
----------------------
   0 C :    0.202916
   1 C :    0.164307
   2 C :    0.159689
   3 C :    0.164307
   4 C :    0.202915
   5 C :   -0.233698
   6 N :    0.226866
   7 C :    0.471243
   8 H :   -0.162131
   9 H :   -0.143656
  10 H :   -0.143153
  11 C :    0.471251
  12 H :   -0.162112
  13 H :   -0.143186
  14 H :   -0.143635
  15 H :   -0.199245
  16 H :   -0.173737
  17 H :   -0.185959
  18 H :   -0.173738
  19 H :   -0.199244

  Mayer bond orders larger than 0.100000
B(  0-C ,  1-C ) :   0.8792 B(  0-C ,  2-C ) :   0.3831 B(  0-C ,  3-C ) :  -0.1777
B(  0-C ,  4-C ) :   0.3919 B(  0-C ,  5-C ) :   0.3687 B(  0-C ,  6-N ) :  -0.3654
B(  0-C ,  7-C ) :  -0.1520 B(  0-C , 19-H ) :   0.6989 B(  1-C ,  2-C ) :   0.9791
B(  1-C ,  4-C ) :  -0.1781 B(  1-C ,  5-C ) :  -0.2529 B(  1-C , 18-H ) :   0.7541
B(  2-C ,  3-C ) :   0.9781 B(  2-C ,  4-C ) :   0.3832 B(  2-C ,  5-C ) :  -0.2765
B(  2-C , 17-H ) :   0.4995 B(  3-C ,  4-C ) :   0.8804 B(  3-C ,  5-C ) :  -0.2543
B(  3-C , 16-H ) :   0.7534 B(  4-C ,  5-C ) :   0.3685 B(  4-C ,  6-N ) :  -0.3662
B(  4-C , 11-C ) :  -0.1536 B(  4-C , 15-H ) :   0.6989 B(  5-C ,  6-N ) :   0.4388
B(  5-C ,  7-C ) :  -0.1522 B(  5-C , 11-C ) :  -0.1516 B(  5-C , 15-H ) :  -0.1162
B(  5-C , 19-H ) :  -0.1146 B(  6-N ,  7-C ) :   1.1244 B(  6-N , 11-C ) :   1.1242
B(  7-C ,  8-H ) :   0.8599 B(  7-C ,  9-H ) :   1.0084 B(  7-C , 10-H ) :   1.0058
B(  7-C , 19-H ) :  -0.1114 B( 11-C , 12-H ) :   0.8596 B( 11-C , 13-H ) :   1.0059
B( 11-C , 14-H ) :   1.0081 B( 11-C , 15-H ) :  -0.1101

Dispersion correction           -0.006332072
FINAL SINGLE POINT ENERGY      -366.126621845575

DIPOLE MOMENT
-------------

Method             : SCF
Type of density    : Electron Density
Multiplicity       :   1
Irrep              :   0
Energy             :  -366.1202897738492652 Eh
Relativity type    :
Basis              : AO
                                X                 Y                 Z
Electronic contribution:     -5.095607575       0.000173810       0.015368678
Nuclear contribution   :      6.353119330      -0.000129568      -0.019904796
                        -----------------------------------------
Total Dipole Moment    :      1.257511755       0.000044242      -0.004536118
                        -----------------------------------------
Magnitude (a.u.)       :      1.257519937
Magnitude (Debye)      :      3.196361661

Rotational constants in cm-1:             0.116345             0.041042             0.030696
Rotational constants in MHz :          3487.926774          1230.417082           920.238252

                             ****ORCA TERMINATED NORMALLY****
TOTAL RUN TIME: 0 days 0 hours 6 minutes 22 seconds 565 msec
