                         Program Version 6.0.0  -   RELEASE  -
|  1> !PBE0 def2-SV(p) Opt Freq d3 TightSCF SlowConv RIJCOSX defgrid2
|  2>
|  3> %pal
|  4> nprocs 4
|  5> end
|  6>
|  7> %scf
|  8> MaxIter 1500
|  9> end
| 10>
| 11> %maxcore 3000
| 12>
| 13>
| 14>
| 15> * xyz 1 2
| 16> C    -0.3495620   -1.0725610    0.0000184
| 17> C     1.0141664   -0.6903072    0.0000022
| 18> C     1.0141324    0.6903556   -0.0000026
| 19> C    -0.3496104    1.0725424    0.0000130
| 20> O    -1.1324716   -0.0000301    0.0000252
| 21> H    -0.8136617    2.0481437    0.0000161
| 22> H     1.8557503    1.3575523   -0.0000147
| 23> H     1.8558156   -1.3574646   -0.0000085
| 24> H    -0.8135629   -2.0481863    0.0000256
| 25> *
| 26>
| 27>                          ****END OF INPUT****
 Total Charge           Charge          ....    1
 Multiplicity           Mult            ....    2
 Number of Electrons    NEL             ....   35
Dispersion correction           -0.005344602
FINAL SINGLE POINT ENERGY      -229.266434316232
Dispersion correction             ... done (  0.0 sec)
Dispersion correction           -0.005336893
FINAL SINGLE POINT ENERGY      -229.267273957356
Dispersion correction             ... done (  0.0 sec)
Dispersion correction           -0.005338033
FINAL SINGLE POINT ENERGY      -229.267342143429
Dispersion correction             ... done (  0.0 sec)
Dispersion correction           -0.005340396
FINAL SINGLE POINT ENERGY      -229.267386593288
Dispersion correction             ... done (  0.0 sec)
                    ***********************HURRAY********************

CARTESIAN COORDINATES (ANGSTROEM)
---------------------------------
  C     -0.343872   -1.074853    0.000014
  C      1.018739   -0.690317    0.000006
  C      1.018705    0.690364   -0.000007
  C     -0.343924    1.074834    0.000018
  O     -1.135479   -0.000029    0.000026
  H     -0.839400    2.049410    0.000020
  H      1.872731    1.370484   -0.000022
  H      1.872798   -1.370396   -0.000001
  H     -0.839302   -2.049453    0.000021

 Multiplicity           Mult            ....    2
 Number of Electrons    NEL             ....   35
 Basis Dimension        Dim             ....   78

ORBITAL ENERGIES
----------------
                 SPIN UP ORBITALS
  NO   OCC          E(Eh)            E(eV)
   0   1.0000     -19.547649      -531.9186
   1   1.0000     -10.581240      -287.9302
   2   1.0000     -10.581212      -287.9294
   3   1.0000     -10.499325      -285.7012
   4   1.0000     -10.498822      -285.6875
   5   1.0000      -1.424450       -38.7613
   6   1.0000      -1.090743       -29.6806
   7   1.0000      -1.041849       -28.3501
   8   1.0000      -0.879446       -23.9309
   9   1.0000      -0.845013       -22.9940
  10   1.0000      -0.813893       -22.1471
  11   1.0000      -0.753285       -20.4979
  12   1.0000      -0.717858       -19.5339
  13   1.0000      -0.676881       -18.4189
  14   1.0000      -0.666870       -18.1465
  15   1.0000      -0.645273       -17.5588
  16   1.0000      -0.559429       -15.2229
  17   1.0000      -0.530606       -14.4385
  18   0.0000      -0.269875        -7.3437
  19   0.0000      -0.189910        -5.1677
  20   0.0000      -0.106510        -2.8983
  21   0.0000      -0.085420        -2.3244
  22   0.0000      -0.067288        -1.8310

                 SPIN DOWN ORBITALS
  NO   OCC          E(Eh)            E(eV)
   0   1.0000     -19.549751      -531.9758
   1   1.0000     -10.571865      -287.6751
   2   1.0000     -10.571856      -287.6748
   3   1.0000     -10.498678      -285.6836
   4   1.0000     -10.498155      -285.6693
   5   1.0000      -1.420996       -38.6673
   6   1.0000      -1.084492       -29.5105
   7   1.0000      -1.019273       -27.7358
   8   1.0000      -0.872367       -23.7383
   9   1.0000      -0.831680       -22.6312
  10   1.0000      -0.811454       -22.0808
  11   1.0000      -0.729054       -19.8386
  12   1.0000      -0.712771       -19.3955
  13   1.0000      -0.676849       -18.4180
  14   1.0000      -0.661563       -18.0020
  15   1.0000      -0.643167       -17.5015
  16   1.0000      -0.549907       -14.9637
  17   0.0000      -0.396648       -10.7933
  18   0.0000      -0.218830        -5.9547
  19   0.0000      -0.160829        -4.3764
  20   0.0000      -0.104128        -2.8335
  21   0.0000      -0.074418        -2.0250

MULLIKEN ATOMIC CHARGES AND SPIN POPULATIONS
--------------------------------------------
   0 C :    0.188396    0.538388
   1 C :   -0.083116    0.035263
   2 C :   -0.083116    0.035261
   3 C :    0.188397    0.538388
   4 O :   -0.144383   -0.083605
   5 H :    0.240291   -0.027743
   6 H :    0.226621   -0.004104
   7 H :    0.226621   -0.004105
   8 H :    0.240291   -0.027743
Sum of atomic charges         :    1.0000000

LOEWDIN ATOMIC CHARGES AND SPIN POPULATIONS
-------------------------------------------
   0 C :    0.149360    0.480759
   1 C :   -0.070505    0.063101
   2 C :   -0.070505    0.063099
   3 C :    0.149360    0.480760
   4 O :    0.066889   -0.050994
   5 H :    0.192780   -0.015786
   6 H :    0.194921   -0.002576
   7 H :    0.194921   -0.002577
   8 H :    0.192780   -0.015786

  Mayer bond orders larger than 0.100000
B(  0-C ,  1-C ) :   1.2286 B(  0-C ,  3-C ) :   0.1039 B(  0-C ,  4-O ) :   1.1543
B(  0-C ,  8-H ) :   0.9311 B(  1-C ,  2-C ) :   1.4881 B(  1-C ,  7-H ) :   0.9471
B(  2-C ,  3-C ) :   1.2286 B(  2-C ,  6-H ) :   0.9471 B(  3-C ,  4-O ) :   1.1543
B(  3-C ,  5-H ) :   0.9311

Dispersion correction           -0.005340574
FINAL SINGLE POINT ENERGY      -229.267387485665

DIPOLE MOMENT
-------------

Method             : SCF
Type of density    : Electron Density
Multiplicity       :   2
Irrep              :   0
Energy             :  -229.2620469116533286 Eh
Relativity type    :
Basis              : AO
                                X                 Y                 Z
Electronic contribution:     -1.461852813      -0.000036213       0.000020744
Nuclear contribution   :      1.915202636       0.000046579      -0.000027644
                        -----------------------------------------
Total Dipole Moment    :      0.453349824       0.000010366      -0.000006900
                        -----------------------------------------
Magnitude (a.u.)       :      0.453349824
Magnitude (Debye)      :      1.152323676

VIBRATIONAL FREQUENCIES
-----------------------

Scaling factor for frequencies =  1.000000000  (already applied!)

     0:       0.00 cm**-1
     1:       0.00 cm**-1
     2:       0.00 cm**-1
     3:       0.00 cm**-1
     4:       0.00 cm**-1
     5:       0.00 cm**-1
     6:     481.17 cm**-1
     7:     509.81 cm**-1
     8:     763.94 cm**-1
     9:     815.19 cm**-1
    10:     856.42 cm**-1
    11:     886.77 cm**-1
    12:     908.20 cm**-1
    13:     981.37 cm**-1
    14:    1026.72 cm**-1
    15:    1068.20 cm**-1
    16:    1086.11 cm**-1
    17:    1125.36 cm**-1
    18:    1196.18 cm**-1
    19:    1294.00 cm**-1
    20:    1424.02 cm**-1
    21:    1491.32 cm**-1
    22:    1552.98 cm**-1
    23:    3265.35 cm**-1
    24:    3276.23 cm**-1
    25:    3278.87 cm**-1
    26:    3288.98 cm**-1

IR SPECTRUM
-----------

 Mode   freq       eps      Int      T**2         TX        TY        TZ
       cm**-1   L/(mol*cm) km/mol    a.u.
----------------------------------------------------------------------------
  6:    481.17   0.000000    0.00  0.000000  ( 0.000002  0.000000 -0.000005)
  7:    509.81   0.006832   34.52  0.004182  (-0.000006 -0.000001 -0.064667)
  8:    763.94   0.010853   54.85  0.004433  (-0.000000  0.000002 -0.066583)
  9:    815.19   0.005201   26.28  0.001991  (-0.000004  0.044620  0.000003)
 10:    856.42   0.000000    0.00  0.000000  (-0.000001 -0.000001  0.000003)
 11:    886.77   0.004534   22.91  0.001596  (-0.039944 -0.000006  0.000001)
 12:    908.20   0.000677    3.42  0.000233  (-0.000006 -0.000000 -0.015253)
 13:    981.37   0.000000    0.00  0.000000  ( 0.000001  0.000002  0.000000)
 14:   1026.72   0.000763    3.86  0.000232  ( 0.000004  0.015230 -0.000000)
 15:   1068.20   0.008383   42.36  0.002449  ( 0.049488 -0.000002 -0.000001)
 16:   1086.11   0.000475    2.40  0.000137  (-0.000008 -0.011688  0.000000)
 17:   1125.36   0.004570   23.10  0.001267  (-0.035599 -0.000002  0.000000)
 18:   1196.18   0.001068    5.40  0.000279  (-0.016692 -0.000001  0.000000)
 19:   1294.00   0.000054    0.27  0.000013  ( 0.000002 -0.003620  0.000000)
 20:   1424.02   0.034629  175.00  0.007589  ( 0.000003 -0.087113  0.000000)
 21:   1491.32   0.011965   60.47  0.002504  ( 0.050037  0.000001 -0.000000)
 22:   1552.98   0.002210   11.17  0.000444  ( 0.021072 -0.000001 -0.000000)
 23:   3265.35   0.000003    0.02  0.000000  (-0.000002 -0.000573  0.000000)
 24:   3276.23   0.011771   59.48  0.001121  (-0.033484  0.000032  0.000000)
 25:   3278.87   0.015368   77.66  0.001463  (-0.000030 -0.038244  0.000000)
 26:   3288.98   0.000692    3.50  0.000066  (-0.008103  0.000007  0.000000)

--------------------------
THERMOCHEMISTRY AT 298.15K
--------------------------

Temperature         ...   298.15 K
Pressure            ...     1.00 atm
Total Mass          ...    68.07 AMU
Quasi RRHO          ...     True
Cut-Off Frequency   ...     1.00 cm^-1

Throughout the following assumptions are being made:
  (1) The electronic state is orbitally nondegenerate
      but the spin degeneracy is treated
  (2) There are no thermally accessible electronically excited states
  (3) Hindered rotations indicated by low frequency modes are not
      treated as such but are treated as vibrations and this may
      cause some error
  (4) All equations used are the standard statistical mechanics
      equations for an ideal gas
  (5) All vibrations are strictly harmonic

freq.     481.17  E(vib)   ...       0.15
freq.     509.81  E(vib)   ...       0.14
freq.     763.94  E(vib)   ...       0.06
freq.     815.19  E(vib)   ...       0.05
freq.     856.42  E(vib)   ...       0.04
freq.     886.77  E(vib)   ...       0.04
freq.     908.20  E(vib)   ...       0.03
freq.     981.37  E(vib)   ...       0.02
freq.    1026.72  E(vib)   ...       0.02
freq.    1068.20  E(vib)   ...       0.02
freq.    1086.11  E(vib)   ...       0.02
freq.    1125.36  E(vib)   ...       0.01
freq.    1196.18  E(vib)   ...       0.01
freq.    1294.00  E(vib)   ...       0.01
freq.    1424.02  E(vib)   ...       0.00
freq.    1491.32  E(vib)   ...       0.00
freq.    1552.98  E(vib)   ...       0.00
freq.    3265.35  E(vib)   ...       0.00
freq.    3276.23  E(vib)   ...       0.00
freq.    3278.87  E(vib)   ...       0.00
freq.    3288.98  E(vib)   ...       0.00

------------
INNER ENERGY
------------

The inner energy is: U= E(el) + E(ZPE) + E(vib) + E(rot) + E(trans)
    E(el)   - is the total energy from the electronic structure calculation
              = E(kin-el) + E(nuc-el) + E(el-el) + E(nuc-nuc)
    E(ZPE)  - the the zero temperature vibrational energy from the frequency calculation
    E(vib)  - the the finite temperature correction to E(ZPE) due to population
              of excited vibrational states
    E(rot)  - is the rotational thermal energy
    E(trans)- is the translational thermal energy

Summary of contributions to the inner energy U:
Electronic energy                ...   -229.26738749 Eh
Zero point energy                ...      0.06966002 Eh      43.71 kcal/mol
Thermal vibrational correction   ...      0.00098597 Eh       0.62 kcal/mol
Thermal rotational correction    ...      0.00141627 Eh       0.89 kcal/mol
Thermal translational correction ...      0.00141627 Eh       0.89 kcal/mol
-----------------------------------------------------------------------
Total thermal energy                   -229.19390896 Eh

Summary of corrections to the electronic energy:
(perhaps to be used in another calculation)
Total thermal correction                  0.00381851 Eh       2.40 kcal/mol
Non-thermal (ZPE) correction              0.06966002 Eh      43.71 kcal/mol
-----------------------------------------------------------------------
Total correction                          0.07347853 Eh      46.11 kcal/mol

--------
ENTHALPY
--------

The enthalpy is H = U + kB*T
                kB is Boltzmann's constant
Total thermal energy              ...   -229.19390896 Eh
Thermal Enthalpy correction       ...      0.00094421 Eh       0.59 kcal/mol
-----------------------------------------------------------------------
Total Enthalpy                    ...   -229.19296475 Eh

Note: Rotational entropy computed according to Herzberg
Infrared and Raman Spectra, Chapter V,1, Van Nostrand Reinhold, 1945
Point Group:  C2v, Symmetry Number:   2
Rotational constants in cm-1:     0.327624     0.296324     0.155594

Vibrational entropy computed according to the QRRHO of S. Grimme
Chem.Eur.J. 2012 18 9955 using a reference frequency of 100.0 cm-1

-------
ENTROPY
-------

The entropy contributions are T*S = T*(S(el)+S(vib)+S(rot)+S(trans))
     S(el)   - electronic entropy
     S(vib)  - vibrational entropy
     S(rot)  - rotational entropy
     S(trans)- translational entropy
The entropies will be listed as multiplied by the temperature to get
units of energy

Electronic entropy                ...      0.00065446 Eh      0.41 kcal/mol
Vibrational entropy               ...      0.00128859 Eh      0.81 kcal/mol
Rotational entropy                ...      0.01083568 Eh      6.80 kcal/mol
Translational entropy             ...      0.01832660 Eh     11.50 kcal/mol
-----------------------------------------------------------------------
Final entropy term                ...      0.03110533 Eh     19.52 kcal/mol

In case the symmetry of your molecule has not been determined correctly
or in case you have a reason to use a different symmetry number we print
out the resulting rotational entropy values for sn=1,12:

 non-linear molecules -----------------------------------
|  sn= 1 | S(rot)=       0.01149014 Eh      7.21 kcal/mol|
|  sn= 2 | S(rot)=       0.01083568 Eh      6.80 kcal/mol|
|  sn= 3 | S(rot)=       0.01045285 Eh      6.56 kcal/mol|
|  sn= 4 | S(rot)=       0.01018123 Eh      6.39 kcal/mol|
|  sn= 5 | S(rot)=       0.00997054 Eh      6.26 kcal/mol|
|  sn= 6 | S(rot)=       0.00979840 Eh      6.15 kcal/mol|
|  sn= 7 | S(rot)=       0.00965285 Eh      6.06 kcal/mol|
|  sn= 8 | S(rot)=       0.00952677 Eh      5.98 kcal/mol|
|  sn= 9 | S(rot)=       0.00941556 Eh      5.91 kcal/mol|
|  sn=10 | S(rot)=       0.00931608 Eh      5.85 kcal/mol|
|  sn=11 | S(rot)=       0.00922609 Eh      5.79 kcal/mol|
|  sn=12 | S(rot)=       0.00914394 Eh      5.74 kcal/mol|
 linear molecules ---------------------------------------
|  Dinfh | S(rot)=       0.00708246 Eh      4.44 kcal/mol|
|  Cinfv | S(rot)=       0.00773691 Eh      4.85 kcal/mol|
 --------------------------------------------------------

-------------------
GIBBS FREE ENERGY
-------------------

The Gibbs free energy is G = H - T*S

Total enthalpy                    ...   -229.19296475 Eh
Total entropy correction          ...     -0.03110533 Eh    -19.52 kcal/mol
-----------------------------------------------------------------------
Final Gibbs free energy         ...   -229.22407008 Eh

For completeness - the Gibbs free energy minus the electronic energy
G-E(el)                           ...      0.04331740 Eh     27.18 kcal/mol

                             ****ORCA TERMINATED NORMALLY****
TOTAL RUN TIME: 0 days 0 hours 5 minutes 27 seconds 290 msec
