                         Program Version 6.0.0  -   RELEASE  -
|  1> !TPSSh opt aug-cc-pVTZ d3 TightSCF SlowConv RIJCOSX defgrid2
|  2>
|  3> %pal
|  4> nprocs 8
|  5> end
|  6>
|  7> %scf
|  8> MaxIter 1500
|  9> end
| 10>
| 11> %maxcore 3500
| 12>
| 13> !CPCM
| 14> %cpcm smd true
| 15> SMDsolvent "MeCN"
| 16> surfacetype gepol_ses
| 17> rsolv 2.19
| 18> end
| 19>
| 20> * xyz 0 1
| 21> C          -0.72498712360752     -1.03199143591489     -0.00035587408950
| 22> C          -1.31725281953672      0.23700082940336     -0.00009216740947
| 23> C          -0.49927603036286      1.37741269983118     -0.00017815340748
| 24> C           0.87877130461947      1.25225114649976     -0.00046421372633
| 25> C           1.48912617012247     -0.01748708715836     -0.00062594889474
| 26> C           0.66252427774642     -1.14934366375667     -0.00064528665934
| 27> H           1.11889620163877     -2.14249327366435     -0.00083021648088
| 28> C           2.91104462440564     -0.14733894022628     -0.00063151415770
| 29> C           4.11990582812650     -0.25742637188868      0.00161358861277
| 30> H           5.19058139416864     -0.35415649223885      0.00097524906911
| 31> H           1.50779855780145      2.14601626186340     -0.00050473395896
| 32> H          -0.98017045333696      2.35860761783862      0.00000793066196
| 33> O          -2.64430351331883      0.45808400164866      0.00024605971359
| 34> C          -3.51534558275692     -0.63765175952228      0.00045178300619
| 35> H          -4.53490407246321     -0.22445155867607      0.00076695107216
| 36> H          -3.38161982455796     -1.26589006640153     -0.90098962915142
| 37> H          -3.38109122143507     -1.26596319208985      0.90176498266982
| 38> H          -1.33393961725331     -1.93771991554716     -0.00032660686979
| 39> *
| 40>
| 41>                          ****END OF INPUT****
 Total Charge           Charge          ....    0
 Multiplicity           Mult            ....    1
 Number of Electrons    NEL             ....   70
Dispersion correction           -0.021288606
FINAL SINGLE POINT ENERGY      -423.126737304589
Dispersion correction             ... done (  0.1 sec)
Dispersion correction           -0.021332180
FINAL SINGLE POINT ENERGY      -423.127943896322
Dispersion correction             ... done (  0.1 sec)
Dispersion correction           -0.021346917
FINAL SINGLE POINT ENERGY      -423.128124645344
Dispersion correction             ... done (  0.1 sec)
Dispersion correction           -0.021348204
FINAL SINGLE POINT ENERGY      -423.128171201528
Dispersion correction             ... done (  0.1 sec)
Dispersion correction           -0.021345935
FINAL SINGLE POINT ENERGY      -423.128178148784
Dispersion correction             ... done (  0.1 sec)
                    ***********************HURRAY********************

CARTESIAN COORDINATES (ANGSTROEM)
---------------------------------
  C     -0.729889   -1.021004    0.000946
  C     -1.309618    0.250754    0.000848
  C     -0.492705    1.388456    0.000216
  C      0.882128    1.256656   -0.000233
  C      1.481748   -0.016034    0.000005
  C      0.653108   -1.145283    0.000590
  H      1.096451   -2.132934    0.000304
  C      2.898986   -0.151993   -0.000818
  C      4.101336   -0.266127    0.000409
  H      5.162843   -0.365973   -0.001022
  H      1.506236    2.141089   -0.000954
  H     -0.953594    2.368220    0.000284
  O     -2.646645    0.477338    0.001338
  C     -3.511931   -0.665726   -0.000480
  H     -4.522835   -0.265278   -0.000744
  H     -3.353391   -1.270420   -0.896423
  H     -3.354875   -1.272548    0.894291
  H     -1.341595   -1.911734    0.001624

 Multiplicity           Mult            ....    1
 Number of Electrons    NEL             ....   70
 Basis Dimension        Dim             ....  644

ORBITAL ENERGIES
----------------

  NO   OCC          E(Eh)            E(eV)
   0   2.0000     -19.089877      -519.4620
   1   2.0000     -10.181510      -277.0530
   2   2.0000     -10.157363      -276.3959
   3   2.0000     -10.139692      -275.9151
   4   2.0000     -10.127092      -275.5722
   5   2.0000     -10.126384      -275.5529
   6   2.0000     -10.122125      -275.4370
   7   2.0000     -10.118750      -275.3452
   8   2.0000     -10.117569      -275.3130
   9   2.0000     -10.110421      -275.1185
  10   2.0000      -1.046602       -28.4795
  11   2.0000      -0.847002       -23.0481
  12   2.0000      -0.768130       -20.9019
  13   2.0000      -0.739581       -20.1250
  14   2.0000      -0.717789       -19.5320
  15   2.0000      -0.678101       -18.4521
  16   2.0000      -0.603236       -16.4149
  17   2.0000      -0.590691       -16.0735
  18   2.0000      -0.534687       -14.5496
  19   2.0000      -0.509513       -13.8646
  20   2.0000      -0.478779       -13.0282
  21   2.0000      -0.470404       -12.8003
  22   2.0000      -0.448567       -12.2061
  23   2.0000      -0.432735       -11.7753
  24   2.0000      -0.411383       -11.1943
  25   2.0000      -0.397759       -10.8236
  26   2.0000      -0.378185       -10.2909
  27   2.0000      -0.375091       -10.2068
  28   2.0000      -0.349938        -9.5223
  29   2.0000      -0.333049        -9.0627
  30   2.0000      -0.314110        -8.5474
  31   2.0000      -0.280380        -7.6295
  32   2.0000      -0.272885        -7.4256
  33   2.0000      -0.255341        -6.9482
  34   2.0000      -0.210575        -5.7300
  35   0.0000      -0.043221        -1.1761
  36   0.0000      -0.030286        -0.8241
  37   0.0000      -0.003863        -0.1051
  38   0.0000       0.006879         0.1872
  39   0.0000       0.011290         0.3072

MULLIKEN ATOMIC CHARGES
-----------------------
   0 C :   -0.104921
   1 C :    1.110962
   2 C :   -0.596496
   3 C :   -0.873999
   4 C :    1.298992
   5 C :   -1.016193
   6 H :   -0.373416
   7 C :    1.191538
   8 C :   -0.632329
   9 H :    0.017569
  10 H :   -0.328563
  11 H :    0.419975
  12 O :   -0.750866
  13 C :   -0.266009
  14 H :    0.027874
  15 H :    0.217314
  16 H :    0.217553
  17 H :    0.441015
Sum of atomic charges:   -0.0000000

LOEWDIN ATOMIC CHARGES
----------------------
   0 C :    0.215972
   1 C :   -0.396989
   2 C :    0.210994
   3 C :    0.191815
   4 C :   -0.232779
   5 C :    0.198406
   6 H :   -0.168402
   7 C :   -0.028853
   8 C :    0.397900
   9 H :   -0.295040
  10 H :   -0.169863
  11 H :   -0.176155
  12 O :    0.601777
  13 C :    0.365165
  14 H :   -0.177088
  15 H :   -0.169988
  16 H :   -0.169975
  17 H :   -0.196897

  Mayer bond orders larger than 0.100000
B(  0-C ,  1-C ) :   1.0783 B(  0-C ,  2-C ) :   0.1819 B(  0-C ,  4-C ) :   0.4611
B(  0-C ,  5-C ) :   1.2305 B(  0-C ,  6-H ) :  -0.1341 B(  0-C ,  8-C ) :  -0.1745
B(  0-C , 17-H ) :   0.3866 B(  1-C ,  2-C ) :   0.9075 B(  1-C ,  3-C ) :  -0.4517
B(  1-C ,  4-C ) :  -0.1088 B(  1-C ,  5-C ) :  -0.3778 B(  1-C ,  7-C ) :   0.2357
B(  1-C , 11-H ) :   0.2070 B(  1-C , 13-C ) :   0.1096 B(  1-C , 17-H ) :   0.2143
B(  2-C ,  3-C ) :   1.5469 B(  2-C ,  4-C ) :   0.3632 B(  2-C ,  8-C ) :  -0.1506
B(  2-C , 11-H ) :   0.3814 B(  2-C , 12-O ) :   0.3764 B(  3-C ,  4-C ) :   0.4865
B(  3-C ,  5-C ) :  -0.5069 B(  3-C ,  6-H ) :   0.1488 B(  3-C ,  7-C ) :   0.3626
B(  3-C , 10-H ) :   1.8261 B(  4-C ,  5-C ) :   0.4615 B(  4-C ,  7-C ) :  -0.1766
B(  4-C ,  8-C ) :   0.7029 B(  4-C ,  9-H ) :   0.1186 B(  4-C , 11-H ) :   0.1066
B(  4-C , 12-O ) :   0.1239 B(  5-C ,  6-H ) :   2.0268 B(  5-C ,  7-C ) :   0.2959
B(  5-C , 10-H ) :   0.1479 B(  5-C , 17-H ) :  -0.1796 B(  6-H ,  7-C ) :  -0.2647
B(  6-H ,  8-C ) :  -0.3323 B(  6-H , 10-H ) :   0.5150 B(  7-C ,  8-C ) :   1.7243
B(  7-C ,  9-H ) :  -0.4299 B(  7-C , 10-H ) :  -0.3200 B(  8-C ,  9-H ) :   1.5027
B(  8-C , 10-H ) :  -0.3254 B(  8-C , 11-H ) :   0.1445 B(  8-C , 17-H ) :   0.2199
B( 12-O , 13-C ) :   0.9637 B( 13-C , 14-H ) :   1.0911 B( 13-C , 15-H ) :   0.9149
B( 13-C , 16-H ) :   0.9151

Dispersion correction           -0.021345150
FINAL SINGLE POINT ENERGY      -423.128179404110

DIPOLE MOMENT
-------------

Method             : SCF
Type of density    : Electron Density
Multiplicity       :   1
Irrep              :   0
Energy             :  -423.1068342545519840 Eh
Relativity type    :
Basis              : AO
                                X                 Y                 Z
Electronic contribution:      4.349154099       1.950261746       0.003239527
Nuclear contribution   :     -5.419349181      -2.561062777      -0.004538116
                        -----------------------------------------
Total Dipole Moment    :     -1.070195082      -0.610801031      -0.001298589
                        -----------------------------------------
Magnitude (a.u.)       :      1.232232567
Magnitude (Debye)      :      3.132086274

Rotational constants in cm-1:             0.160739             0.023678             0.020720
Rotational constants in MHz :          4818.823120           709.847291           621.165384

                             ****ORCA TERMINATED NORMALLY****
TOTAL RUN TIME: 0 days 0 hours 25 minutes 29 seconds 392 msec
