                         Program Version 6.0.0  -   RELEASE  -
|  1> !PBE0 opt aug-cc-pVTZ d3 TightSCF SlowConv RIJCOSX defgrid2
|  2>
|  3> %pal
|  4> nprocs 8
|  5> end
|  6>
|  7> %scf
|  8> MaxIter 1500
|  9> end
| 10>
| 11> %maxcore 3500
| 12>
| 13> !CPCM
| 14> %cpcm smd true
| 15> SMDsolvent "MeCN"
| 16> surfacetype gepol_ses
| 17> rsolv 2.19
| 18> end
| 19>
| 20> * xyz 0 1
| 21>   C           0.69139522684059     -1.22664316199288     -0.00221797916935
| 22>   C          -0.69208843426613     -1.22326302618807     -0.00196525733051
| 23>   C          -1.34616039220304      0.00368865913958     -0.00023297142970
| 24>   C          -0.66844027654226      1.21468227709966      0.00138953263473
| 25>   C           0.71843497009282      1.19248771948923      0.00066270652995
| 26>   C           1.40687036809188     -0.02425170438717     -0.00101619596594
| 27>   C           2.90525430739599     -0.08038259963976     -0.00146963485712
| 28>   O           3.47382029732778     -1.16302464690175      0.00111415420213
| 29>   C           3.67189657948305      1.21206200897054     -0.00465317637956
| 30>   H           3.41916712103349      1.80793633317031      0.87637239446926
| 31>   H           4.73910184710129      1.00122370195943     -0.00799457044905
| 32>   H           3.41331173583201      1.80745504721735     -0.88415133468888
| 33>   H           1.25644606715329      2.13013407948356      0.00099979092485
| 34>   H          -1.21526162161310      2.14578953100855      0.00342527162178
| 35>   N          -2.81540793846571      0.01898129684798      0.00093485387668
| 36>   O          -3.38103867502306      1.10941225945787      0.00330237637192
| 37>   O          -3.40288918840984     -1.05983019471924     -0.00027163185462
| 38>   H          -1.25884617768305     -2.14248628889820     -0.00267181367981
| 39>   H           1.23537608385400     -2.16135779111698     -0.00359121482675
| 40> *
| 41>
| 42>                          ****END OF INPUT****
 Total Charge           Charge          ....    0
 Multiplicity           Mult            ....    1
 Number of Electrons    NEL             ....   86
Dispersion correction           -0.018362813
FINAL SINGLE POINT ENERGY      -588.985951713316
Dispersion correction             ... done (  0.1 sec)
Dispersion correction           -0.018413028
FINAL SINGLE POINT ENERGY      -588.986712805194
Dispersion correction             ... done (  0.1 sec)
Dispersion correction           -0.018416057
FINAL SINGLE POINT ENERGY      -588.986731189957
Dispersion correction             ... done (  0.0 sec)
FINAL SINGLE POINT ENERGY      -588.986618349906
Dispersion correction             ... done (  0.1 sec)
Dispersion correction           -0.018414451
FINAL SINGLE POINT ENERGY      -588.986736905930
Dispersion correction             ... done (  0.1 sec)
Dispersion correction           -0.018413929
FINAL SINGLE POINT ENERGY      -588.986734947134
Dispersion correction             ... done (  0.1 sec)
                    ***********************HURRAY********************

CARTESIAN COORDINATES (ANGSTROEM)
---------------------------------
  C      0.691168   -1.220428   -0.002181
  C     -0.688666   -1.216887   -0.001946
  C     -1.342879    0.004774   -0.000131
  C     -0.665588    1.210864    0.001626
  C      0.717476    1.189220    0.000944
  C      1.403875   -0.022661   -0.000844
  C      2.900162   -0.080169   -0.001371
  O      3.463651   -1.156062    0.001212
  C      3.661153    1.206073   -0.004785
  H      3.407749    1.802539    0.875039
  H      4.728457    0.997232   -0.008076
  H      3.401928    1.801583   -0.883413
  H      1.254960    2.127392    0.001313
  H     -1.210618    2.143338    0.003856
  N     -2.805013    0.019510    0.000731
  O     -3.363476    1.098567    0.002688
  O     -3.384285   -1.048527   -0.000240
  H     -1.253168   -2.137794   -0.002751
  H      1.234055   -2.155952   -0.003706

 Multiplicity           Mult            ....    1
 Number of Electrons    NEL             ....   86
 Basis Dimension        Dim             ....  713

ORBITAL ENERGIES
----------------

  NO   OCC          E(Eh)            E(eV)
   0   2.0000     -19.254048      -523.9293
   1   2.0000     -19.253974      -523.9273
   2   2.0000     -19.206949      -522.6477
   3   2.0000     -14.637036      -398.2940
   4   2.0000     -10.324403      -280.9413
   5   2.0000     -10.297930      -280.2209
   6   2.0000     -10.258825      -279.1568
   7   2.0000     -10.256213      -279.0857
   8   2.0000     -10.255512      -279.0667
   9   2.0000     -10.252657      -278.9890
  10   2.0000     -10.249608      -278.9060
  11   2.0000     -10.218914      -278.0708
  12   2.0000      -1.284651       -34.9571
  13   2.0000      -1.104178       -30.0462
  14   2.0000      -1.083582       -29.4858
  15   2.0000      -0.926215       -25.2036
  16   2.0000      -0.847904       -23.0727
  17   2.0000      -0.800830       -21.7917
  18   2.0000      -0.776227       -21.1222
  19   2.0000      -0.731284       -19.8992
  20   2.0000      -0.653192       -17.7743
  21   2.0000      -0.635279       -17.2868
  22   2.0000      -0.593048       -16.1376
  23   2.0000      -0.581111       -15.8128
  24   2.0000      -0.571985       -15.5645
  25   2.0000      -0.550757       -14.9869
  26   2.0000      -0.511089       -13.9074
  27   2.0000      -0.500220       -13.6117
  28   2.0000      -0.477352       -12.9894
  29   2.0000      -0.464243       -12.6327
  30   2.0000      -0.459238       -12.4965
  31   2.0000      -0.446061       -12.1379
  32   2.0000      -0.432069       -11.7572
  33   2.0000      -0.410678       -11.1751
  34   2.0000      -0.395150       -10.7526
  35   2.0000      -0.378872       -10.3096
  36   2.0000      -0.375551       -10.2193
  37   2.0000      -0.344857        -9.3840
  38   2.0000      -0.341826        -9.3015
  39   2.0000      -0.324777        -8.8376
  40   2.0000      -0.297759        -8.1024
  41   2.0000      -0.291932        -7.9439
  42   2.0000      -0.278617        -7.5815
  43   0.0000      -0.105800        -2.8790
  44   0.0000      -0.043722        -1.1897
  45   0.0000      -0.027818        -0.7570
  46   0.0000       0.000413         0.0112
  47   0.0000       0.013583         0.3696

MULLIKEN ATOMIC CHARGES
-----------------------
   0 C :   -0.894211
   1 C :   -0.514031
   2 C :    0.385835
   3 C :   -0.769294
   4 C :   -0.470297
   5 C :    0.933856
   6 C :    0.714565
   7 O :   -0.911173
   8 C :   -0.643528
   9 H :    0.305425
  10 H :    0.205744
  11 H :    0.304852
  12 H :    0.324799
  13 H :    0.607427
  14 N :    0.796672
  15 O :   -0.684239
  16 O :   -0.686249
  17 H :    0.687308
  18 H :    0.306538
Sum of atomic charges:   -0.0000000

LOEWDIN ATOMIC CHARGES
----------------------
   0 C :    0.221366
   1 C :    0.223790
   2 C :   -0.230285
   3 C :    0.229135
   4 C :    0.235116
   5 C :   -0.109906
   6 C :   -0.534010
   7 O :    0.500064
   8 C :    0.579051
   9 H :   -0.157263
  10 H :   -0.173589
  11 H :   -0.157471
  12 H :   -0.171319
  13 H :   -0.183262
  14 N :   -0.745564
  15 O :    0.418641
  16 O :    0.418921
  17 H :   -0.184679
  18 H :   -0.178737

  Mayer bond orders larger than 0.100000
B(  0-C ,  1-C ) :   1.4741 B(  0-C ,  2-C ) :  -0.3626 B(  0-C ,  4-C ) :  -0.3161
B(  0-C ,  5-C ) :   0.5665 B(  0-C ,  6-C ) :   0.1765 B(  0-C , 18-H ) :   0.8558
B(  1-C ,  2-C ) :   1.1128 B(  1-C ,  3-C ) :   0.1327 B(  1-C ,  5-C ) :   0.1230
B(  1-C ,  7-O ) :  -0.1046 B(  1-C , 14-N ) :  -0.1261 B(  1-C , 17-H ) :   0.2002
B(  2-C ,  3-C ) :   0.9834 B(  2-C ,  4-C ) :  -0.2724 B(  2-C , 14-N ) :   1.1780
B(  2-C , 15-O ) :   0.3979 B(  2-C , 16-O ) :   0.4033 B(  3-C ,  4-C ) :   1.1303
B(  3-C ,  5-C ) :   0.1907 B(  3-C , 13-H ) :   0.3112 B(  3-C , 14-N ) :  -0.1894
B(  4-C ,  5-C ) :   0.7142 B(  4-C , 12-H ) :   0.9085 B(  5-C ,  6-C ) :   0.4087
B(  5-C ,  7-O ) :   0.2163 B(  6-C ,  7-O ) :   0.8884 B(  6-C ,  8-C ) :   0.9648
B(  7-O , 18-H ) :   0.1622 B(  8-C ,  9-H ) :   0.9044 B(  8-C , 10-H ) :   0.9468
B(  8-C , 11-H ) :   0.9051 B( 14-N , 15-O ) :   0.8846 B( 14-N , 16-O ) :   0.8763
B( 15-O , 16-O ) :   0.1786

Dispersion correction           -0.018413847
FINAL SINGLE POINT ENERGY      -588.986735904083

DIPOLE MOMENT
-------------

Method             : SCF
Type of density    : Electron Density
Multiplicity       :   1
Irrep              :   0
Energy             :  -588.9683220575695941 Eh
Relativity type    :
Basis              : AO
                                X                 Y                 Z
Electronic contribution:     -9.357573223      -2.931831741       0.009849044
Nuclear contribution   :     10.783760477       4.276866724      -0.014442256
                        -----------------------------------------
Total Dipole Moment    :      1.426187254       1.345034983      -0.004593213
                        -----------------------------------------
Magnitude (a.u.)       :      1.960395441
Magnitude (Debye)      :      4.982929212

Rotational constants in cm-1:             0.097047             0.016050             0.013807
Rotational constants in MHz :          2909.397101           481.164535           413.935466

                             ****ORCA TERMINATED NORMALLY****
TOTAL RUN TIME: 0 days 0 hours 36 minutes 2 seconds 605 msec
