                         Program Version 6.0.0  -   RELEASE  -
|  1> !PBE0 freq aug-cc-pVTZ d3 TightSCF SlowConv RIJCOSX defgrid2
|  2>
|  3> %pal
|  4> nprocs 12
|  5> end
|  6>
|  7> %scf
|  8> MaxIter 1500
|  9> end
| 10>
| 11> %maxcore 5000
| 12>
| 13> !CPCM
| 14> %cpcm smd true
| 15> SMDsolvent "MeCN"
| 16> surfacetype gepol_ses
| 17> rsolv 2.19
| 18> end
| 19>
| 20> * xyz 1 2
| 21>   C           2.41325114194112     -0.93375610175494      0.55573206874017
| 22>   C           1.25653973397210     -0.38017861636450     -0.02718962979965
| 23>   C           1.34658203208671      0.87127833080913     -0.66851249511236
| 24>   C           2.54612850543264      1.54722667973901     -0.71139507037966
| 25>   C           3.67290758917548      0.99772550651124     -0.10767851806795
| 26>   C           3.60188852473792     -0.24149243592992      0.52747132595716
| 27>   H           4.48176883376205     -0.65846229003315      0.99974797517231
| 28>   H           4.61502336290230      1.53051026668470     -0.14143965243214
| 29>   H           2.61321144935577      2.49705595935112     -1.22545610676944
| 30>   H           0.47963842048418      1.27586554579512     -1.17329300795142
| 31>   C          -0.00001194981364     -1.09231277926103      0.00054810111094
| 32>   C          -0.00004867998484     -2.47698913487668      0.00065687382087
| 33>   H          -0.92480013130979     -3.03719163897420     -0.02401860743090
| 34>   H           0.92464026729533     -3.03727981934484      0.02555529915079
| 35>   C          -1.25658986566413     -0.38022535573383      0.02787829765282
| 36>   C          -2.41284123766611     -0.93349127689839     -0.55621453903072
| 37>   C          -3.60141323292636     -0.24108642631916     -0.52871675950960
| 38>   C          -3.67283854752369      0.99796467642265      0.10668170415234
| 39>   C          -2.54654846360673      1.54713362874680      0.71158796062187
| 40>   C          -1.34708719289075      0.87098000635369      0.66961495512422
| 41>   H          -0.48071091469379      1.27518667224211      1.17565732381925
| 42>   H          -2.61392817588466      2.49687036275903      1.22578776415029
| 43>   H          -4.61489259066155      1.53091320474149      0.13962888868484
| 44>   H          -4.48088243193205     -0.65771446664750     -1.00199001869804
| 45>   H          -2.35658789963368     -1.88540652168600     -1.06721075152100
| 46>   H           2.35736885304619     -1.88591797633193      1.06629071854500
| 47> *
| 48>
| 49>                          ****END OF INPUT****

CARTESIAN COORDINATES (ANGSTROEM)
---------------------------------
  C      2.413251   -0.933756    0.555732
  C      1.256540   -0.380179   -0.027190
  C      1.346582    0.871278   -0.668512
  C      2.546129    1.547227   -0.711395
  C      3.672908    0.997726   -0.107679
  C      3.601889   -0.241492    0.527471
  H      4.481769   -0.658462    0.999748
  H      4.615023    1.530510   -0.141440
  H      2.613211    2.497056   -1.225456
  H      0.479638    1.275866   -1.173293
  C     -0.000012   -1.092313    0.000548
  C     -0.000049   -2.476989    0.000657
  H     -0.924800   -3.037192   -0.024019
  H      0.924640   -3.037280    0.025555
  C     -1.256590   -0.380225    0.027878
  C     -2.412841   -0.933491   -0.556215
  C     -3.601413   -0.241086   -0.528717
  C     -3.672839    0.997965    0.106682
  C     -2.546548    1.547134    0.711588
  C     -1.347087    0.870980    0.669615
  H     -0.480711    1.275187    1.175657
  H     -2.613928    2.496870    1.225788
  H     -4.614893    1.530913    0.139629
  H     -4.480882   -0.657714   -1.001990
  H     -2.356588   -1.885407   -1.067211
  H      2.357369   -1.885918    1.066291

 Total Charge           Charge          ....    1
 Multiplicity           Mult            ....    2
 Number of Electrons    NEL             ....   95
 Basis Dimension        Dim             ....  920

ORBITAL ENERGIES
----------------
                 SPIN UP ORBITALS
  NO   OCC          E(Eh)            E(eV)
   0   1.0000     -10.307408      -280.4788
   1   1.0000     -10.294659      -280.1319
   2   1.0000     -10.279569      -279.7213
   3   1.0000     -10.279553      -279.7208
   4   1.0000     -10.261130      -279.2196
   5   1.0000     -10.261110      -279.2190
   6   1.0000     -10.261060      -279.2176
   7   1.0000     -10.261037      -279.2170
   8   1.0000     -10.260059      -279.1904
   9   1.0000     -10.260045      -279.1900
  10   1.0000     -10.249152      -278.8936
  11   1.0000     -10.249140      -278.8933
  12   1.0000     -10.248639      -278.8796
  13   1.0000     -10.248635      -278.8795
  14   1.0000      -0.940440       -25.5907
  15   1.0000      -0.913280       -24.8516
  16   1.0000      -0.874212       -23.7885
  17   1.0000      -0.805476       -21.9181
  18   1.0000      -0.803949       -21.8766
  19   1.0000      -0.795250       -21.6398
  20   1.0000      -0.780173       -21.2296
  21   1.0000      -0.694705       -18.9039
  22   1.0000      -0.660049       -17.9608
  23   1.0000      -0.649133       -17.6638
  24   1.0000      -0.642561       -17.4850
  25   1.0000      -0.600095       -16.3294
  26   1.0000      -0.570925       -15.5357
  27   1.0000      -0.548020       -14.9124
  28   1.0000      -0.511624       -13.9220
  29   1.0000      -0.511074       -13.9070
  30   1.0000      -0.491411       -13.3720
  31   1.0000      -0.482317       -13.1245
  32   1.0000      -0.480052       -13.0629
  33   1.0000      -0.459858       -12.5134
  34   1.0000      -0.459741       -12.5102
  35   1.0000      -0.458477       -12.4758
  36   1.0000      -0.429014       -11.6741
  37   1.0000      -0.424514       -11.5516
  38   1.0000      -0.416316       -11.3285
  39   1.0000      -0.393159       -10.6984
  40   1.0000      -0.382706       -10.4140
  41   1.0000      -0.377271       -10.2661
  42   1.0000      -0.372244       -10.1293
  43   1.0000      -0.362123        -9.8539
  44   1.0000      -0.300412        -8.1746
  45   1.0000      -0.297973        -8.1083
  46   1.0000      -0.292345        -7.9551
  47   1.0000      -0.279108        -7.5949
  48   0.0000      -0.097029        -2.6403
  49   0.0000      -0.045881        -1.2485
  50   0.0000      -0.036341        -0.9889
  51   0.0000      -0.021922        -0.5965
  52   0.0000      -0.002639        -0.0718

                 SPIN DOWN ORBITALS
  NO   OCC          E(Eh)            E(eV)
   0   1.0000     -10.307711      -280.4871
   1   1.0000     -10.285867      -279.8927
   2   1.0000     -10.278544      -279.6934
   3   1.0000     -10.278529      -279.6930
   4   1.0000     -10.260117      -279.1920
   5   1.0000     -10.260094      -279.1914
   6   1.0000     -10.259162      -279.1660
   7   1.0000     -10.259146      -279.1656
   8   1.0000     -10.259128      -279.1651
   9   1.0000     -10.259108      -279.1645
  10   1.0000     -10.249627      -278.9065
  11   1.0000     -10.249614      -278.9062
  12   1.0000     -10.249186      -278.8945
  13   1.0000     -10.249182      -278.8944
  14   1.0000      -0.936148       -25.4739
  15   1.0000      -0.910327       -24.7713
  16   1.0000      -0.867705       -23.6115
  17   1.0000      -0.802927       -21.8488
  18   1.0000      -0.801045       -21.7976
  19   1.0000      -0.792718       -21.5710
  20   1.0000      -0.766723       -20.8636
  21   1.0000      -0.688474       -18.7343
  22   1.0000      -0.658109       -17.9081
  23   1.0000      -0.645659       -17.5693
  24   1.0000      -0.640800       -17.4371
  25   1.0000      -0.597146       -16.2492
  26   1.0000      -0.569818       -15.5055
  27   1.0000      -0.545231       -14.8365
  28   1.0000      -0.509513       -13.8645
  29   1.0000      -0.509064       -13.8523
  30   1.0000      -0.489498       -13.3199
  31   1.0000      -0.478870       -13.0307
  32   1.0000      -0.478116       -13.0102
  33   1.0000      -0.458666       -12.4809
  34   1.0000      -0.458132       -12.4664
  35   1.0000      -0.456525       -12.4227
  36   1.0000      -0.425823       -11.5872
  37   1.0000      -0.415871       -11.3164
  38   1.0000      -0.408281       -11.1099
  39   1.0000      -0.392479       -10.6799
  40   1.0000      -0.382191       -10.3999
  41   1.0000      -0.372629       -10.1397
  42   1.0000      -0.370933       -10.0936
  43   1.0000      -0.341491        -9.2924
  44   1.0000      -0.296722        -8.0742
  45   1.0000      -0.290037        -7.8923
  46   1.0000      -0.281371        -7.6565
  47   0.0000      -0.193102        -5.2546
  48   0.0000      -0.066045        -1.7972
  49   0.0000      -0.038522        -1.0482
  50   0.0000      -0.031670        -0.8618
  51   0.0000      -0.016055        -0.4369

MULLIKEN ATOMIC CHARGES AND SPIN POPULATIONS
--------------------------------------------
   0 C :   -1.168065    0.029299
   1 C :    2.163219    0.114989
   2 C :   -0.778347    0.053832
   3 C :   -1.111293   -0.030564
   4 C :   -0.291317    0.120365
   5 C :   -0.885909   -0.022582
   6 H :    0.617587   -0.000244
   7 H :    0.756085    0.001689
   8 H :    0.600711    0.001366
   9 H :    0.276581   -0.003190
  10 C :    0.727540    0.023357
  11 C :   -1.030483    0.477687
  12 H :    0.350211   -0.002697
  13 H :    0.345903   -0.002707
  14 C :    2.153597    0.114825
  15 C :   -1.186994    0.029227
  16 C :   -0.893945   -0.022575
  17 C :   -0.311046    0.120258
  18 C :   -1.103106   -0.030749
  19 C :   -0.766608    0.054242
  20 H :    0.279237   -0.003484
  21 H :    0.600264    0.001320
  22 H :    0.691669    0.002357
  23 H :    0.725583   -0.000716
  24 H :    0.113727   -0.012812
  25 H :    0.125198   -0.012495
Sum of atomic charges         :    1.0000000

LOEWDIN ATOMIC CHARGES AND SPIN POPULATIONS
-------------------------------------------
   0 C :    0.251183    0.034977
   1 C :   -0.096660    0.053925
   2 C :    0.239452    0.038753
   3 C :    0.246357    0.012698
   4 C :    0.243280    0.058301
   5 C :    0.244113    0.013735
   6 H :   -0.158092   -0.002194
   7 H :   -0.152749    0.014247
   8 H :   -0.157230   -0.002483
   9 H :   -0.156701    0.006564
  10 C :   -0.056046    0.108719
  11 C :    0.698736    0.297139
  12 H :   -0.160798    0.062594
  13 H :   -0.160852    0.062592
  14 C :   -0.096754    0.053864
  15 C :    0.251173    0.034936
  16 C :    0.244084    0.013726
  17 C :    0.243245    0.058237
  18 C :    0.246331    0.012676
  19 C :    0.239346    0.038734
  20 H :   -0.156692    0.006557
  21 H :   -0.157222   -0.002483
  22 H :   -0.152774    0.014231
  23 H :   -0.158096   -0.002190
  24 H :   -0.163291    0.006074
  25 H :   -0.163346    0.006073

  Mayer bond orders larger than 0.100000
B(  0-C ,  1-C ) :   0.1420 B(  0-C ,  2-C ) :  -0.6728 B(  0-C ,  3-C ) :   0.1341
B(  0-C ,  4-C ) :  -0.1391 B(  0-C ,  5-C ) :   1.5299 B(  0-C ,  6-H ) :  -0.1460
B(  0-C , 10-C ) :   0.3304 B(  0-C , 25-H ) :   1.4585 B(  1-C ,  2-C ) :   0.5084
B(  1-C ,  3-C ) :  -0.1735 B(  1-C ,  4-C ) :  -0.2746 B(  1-C ,  5-C ) :  -0.1019
B(  1-C , 10-C ) :   0.1471 B(  1-C , 11-C ) :  -0.2869 B(  1-C , 14-C ) :  -0.2585
B(  2-C ,  3-C ) :   1.5324 B(  2-C ,  9-H ) :   1.2152 B(  2-C , 10-C ) :   0.2353
B(  2-C , 19-C ) :   0.1671 B(  3-C ,  4-C ) :   1.5269 B(  3-C ,  5-C ) :   0.3061
B(  3-C ,  8-H ) :   0.2631 B(  4-C ,  5-C ) :   1.3361 B(  4-C ,  6-H ) :   0.1252
B(  4-C ,  7-H ) :   0.2060 B(  4-C ,  8-H ) :   0.1072 B(  4-C , 10-C ) :   0.1958
B(  5-C ,  6-H ) :   0.3058 B(  5-C ,  9-H ) :  -0.1153 B(  9-H , 10-C ) :  -0.1517
B(  9-H , 25-H ) :   0.1657 B( 10-C , 11-C ) :   0.8783 B( 10-C , 14-C ) :   0.1466
B( 10-C , 15-C ) :   0.3242 B( 10-C , 17-C ) :   0.2026 B( 10-C , 19-C ) :   0.2317
B( 10-C , 20-H ) :  -0.1488 B( 10-C , 24-H ) :  -0.1493 B( 10-C , 25-H ) :  -0.1515
B( 11-C , 12-H ) :   0.8701 B( 11-C , 13-H ) :   0.8755 B( 11-C , 14-C ) :  -0.2809
B( 14-C , 15-C ) :   0.1446 B( 14-C , 17-C ) :  -0.2534 B( 14-C , 18-C ) :  -0.1715
B( 14-C , 19-C ) :   0.5151 B( 15-C , 16-C ) :   1.5722 B( 15-C , 17-C ) :  -0.1488
B( 15-C , 18-C ) :   0.1371 B( 15-C , 19-C ) :  -0.6612 B( 15-C , 23-H ) :  -0.1453
B( 15-C , 24-H ) :   1.4701 B( 16-C , 17-C ) :   1.3645 B( 16-C , 18-C ) :   0.3123
B( 16-C , 20-H ) :  -0.1168 B( 16-C , 23-H ) :   0.1186 B( 17-C , 18-C ) :   1.5066
B( 17-C , 21-H ) :   0.1131 B( 17-C , 22-H ) :   0.2849 B( 17-C , 23-H ) :   0.1306
B( 18-C , 19-C ) :   1.5156 B( 18-C , 21-H ) :   0.2624 B( 19-C , 20-H ) :   1.2147
B( 20-H , 24-H ) :   0.1697

Dispersion correction           -0.029275881
FINAL SINGLE POINT ENERGY      -540.055651841543

DIPOLE MOMENT
-------------

Method             : SCF
Type of density    : Electron Density
Multiplicity       :   2
Irrep              :   0
Energy             :  -540.0263759605869609 Eh
Relativity type    :
Basis              : AO
                                X                 Y                 Z
Electronic contribution:      0.000820507      -0.350560781       0.000449833
Nuclear contribution   :     -0.000070873      -0.600856828      -0.000996108
                        -----------------------------------------
Total Dipole Moment    :      0.000749634      -0.951417609      -0.000546276
                        -----------------------------------------
Magnitude (a.u.)       :      0.951418061
Magnitude (Debye)      :      2.418312525

VIBRATIONAL FREQUENCIES
-----------------------

Scaling factor for frequencies =  1.000000000  (already applied!)

     0:       0.00 cm**-1
     1:       0.00 cm**-1
     2:       0.00 cm**-1
     3:       0.00 cm**-1
     4:       0.00 cm**-1
     5:       0.00 cm**-1
     6:     -42.55 cm**-1 ***imaginary mode***
     7:     -28.90 cm**-1 ***imaginary mode***
     8:      70.14 cm**-1
     9:     107.02 cm**-1
    10:     197.90 cm**-1
    11:     235.57 cm**-1
    12:     297.64 cm**-1
    13:     332.52 cm**-1
    14:     384.70 cm**-1
    15:     399.91 cm**-1
    16:     415.09 cm**-1
    17:     422.15 cm**-1
    18:     481.29 cm**-1
    19:     557.55 cm**-1
    20:     580.14 cm**-1
    21:     605.50 cm**-1
    22:     608.01 cm**-1
    23:     614.70 cm**-1
    24:     671.87 cm**-1
    25:     676.47 cm**-1
    26:     733.33 cm**-1
    27:     791.59 cm**-1
    28:     798.12 cm**-1
    29:     837.11 cm**-1
    30:     838.29 cm**-1
    31:     846.25 cm**-1
    32:     947.09 cm**-1
    33:     960.09 cm**-1
    34:     965.45 cm**-1
    35:    1003.42 cm**-1
    36:    1006.01 cm**-1
    37:    1007.54 cm**-1
    38:    1011.92 cm**-1
    39:    1028.52 cm**-1
    40:    1028.84 cm**-1
    41:    1036.50 cm**-1
    42:    1043.43 cm**-1
    43:    1059.07 cm**-1
    44:    1107.59 cm**-1
    45:    1111.26 cm**-1
    46:    1159.05 cm**-1
    47:    1160.45 cm**-1
    48:    1172.88 cm**-1
    49:    1180.39 cm**-1
    50:    1196.38 cm**-1
    51:    1318.06 cm**-1
    52:    1324.77 cm**-1
    53:    1374.57 cm**-1
    54:    1380.30 cm**-1
    55:    1403.89 cm**-1
    56:    1406.36 cm**-1
    57:    1467.68 cm**-1
    58:    1471.38 cm**-1
    59:    1502.53 cm**-1
    60:    1512.55 cm**-1
    61:    1533.46 cm**-1
    62:    1591.79 cm**-1
    63:    1593.31 cm**-1
    64:    1605.33 cm**-1
    65:    1662.83 cm**-1
    66:    3177.12 cm**-1
    67:    3200.21 cm**-1
    68:    3200.27 cm**-1
    69:    3208.91 cm**-1
    70:    3209.83 cm**-1
    71:    3212.93 cm**-1
    72:    3214.30 cm**-1
    73:    3221.07 cm**-1
    74:    3222.05 cm**-1
    75:    3225.39 cm**-1
    76:    3226.59 cm**-1
    77:    3283.53 cm**-1

IR SPECTRUM
-----------

 Mode   freq       eps      Int      T**2         TX        TY        TZ
       cm**-1   L/(mol*cm) km/mol    a.u.
----------------------------------------------------------------------------
  8:     70.14   0.000024    0.12  0.000105  (-0.000206 -0.010262  0.000096)
  9:    107.02   0.004797   24.24  0.013988  ( 0.102145 -0.000042  0.059622)
 10:    197.90   0.000016    0.08  0.000026  (-0.000639 -0.005032  0.000081)
 11:    235.57   0.000813    4.11  0.001077  ( 0.026723  0.000015  0.019059)
 12:    297.64   0.000022    0.11  0.000023  (-0.000139  0.004775  0.000026)
 13:    332.52   0.031089  157.11  0.029177  (-0.170677  0.000026  0.006795)
 14:    384.70   0.018716   94.59  0.015183  ( 0.123181  0.000038 -0.003008)
 15:    399.91   0.000007    0.04  0.000005  (-0.000258  0.002314 -0.000035)
 16:    415.09   0.000367    1.85  0.000276  ( 0.000644  0.016589  0.000194)
 17:    422.15   0.012219   61.75  0.009032  ( 0.091383 -0.000051  0.026102)
 18:    481.29   0.000154    0.78  0.000100  ( 0.000257  0.010005 -0.000017)
 19:    557.55   0.003388   17.12  0.001896  ( 0.000077 -0.043546  0.000039)
 20:    580.14   0.030565  154.46  0.016441  ( 0.126471  0.000035 -0.021124)
 21:    605.50   0.000448    2.26  0.000231  (-0.009600  0.000059 -0.011782)
 22:    608.01   0.000001    0.00  0.000000  ( 0.000186 -0.000601 -0.000156)
 23:    614.70   0.014950   75.55  0.007590  (-0.085956  0.000104  0.014180)
 24:    671.87   0.006918   34.96  0.003213  ( 0.000286  0.056538  0.004086)
 25:    676.47   0.028031  141.66  0.012931  ( 0.015370  0.002128 -0.112650)
 26:    733.33   0.000044    0.22  0.000019  (-0.000053  0.004326  0.000084)
 27:    791.59   0.004387   22.17  0.001729  ( 0.000460 -0.041576 -0.000819)
 28:    798.12   0.036813  186.04  0.014394  ( 0.093463  0.000347 -0.075224)
 29:    837.11   0.010313   52.12  0.003845  ( 0.061997 -0.000022 -0.001028)
 30:    838.29   0.000631    3.19  0.000235  (-0.000231  0.015330 -0.000051)
 31:    846.25   0.015987   80.79  0.005896  (-0.076782 -0.000006  0.000229)
 32:    947.09   0.022284  112.61  0.007342  ( 0.070907  0.000001 -0.048109)
 33:    960.09   0.000257    1.30  0.000084  (-0.000789  0.009111  0.000124)
 34:    965.45   0.002436   12.31  0.000787  ( 0.023851  0.000033 -0.014784)
 35:   1003.42   0.024693  124.79  0.007679  ( 0.087606  0.000020 -0.002129)
 36:   1006.01   0.000341    1.72  0.000106  (-0.001719  0.010145 -0.000026)
 37:   1007.54   0.025757  130.17  0.007978  (-0.089299 -0.000168 -0.001838)
 38:   1011.92   0.000219    1.11  0.000068  ( 0.000043 -0.008224  0.000001)
 39:   1028.52   0.000320    1.62  0.000097  ( 0.005491  0.007696  0.002786)
 40:   1028.84   0.000647    3.27  0.000196  ( 0.012352 -0.004121  0.005170)
 41:   1036.50   0.025351  128.11  0.007632  ( 0.087362  0.000060 -0.000587)
 42:   1043.43   0.000017    0.08  0.000005  (-0.000297 -0.002202 -0.000021)
 43:   1059.07   0.045017  227.50  0.013265  ( 0.114925  0.000012 -0.007538)
 44:   1107.59   0.001665    8.41  0.000469  ( 0.000154 -0.021655 -0.000079)
 45:   1111.26   0.017605   88.97  0.004944  ( 0.067002 -0.000020  0.021322)
 46:   1159.05   0.001738    8.78  0.000468  ( 0.000723 -0.021622  0.000054)
 47:   1160.45   0.000871    4.40  0.000234  ( 0.013488  0.000197  0.007228)
 48:   1172.88   0.008927   45.11  0.002375  (-0.000558 -0.048731  0.000025)
 49:   1180.39   0.100178  506.26  0.026485  (-0.162635  0.000119  0.005869)
 50:   1196.38   0.000378    1.91  0.000099  (-0.000057 -0.009926  0.000016)
 51:   1318.06   0.017233   87.09  0.004080  (-0.063615 -0.000003  0.005766)
 52:   1324.77   0.000372    1.88  0.000088  ( 0.000224  0.009357  0.000005)
 53:   1374.57   0.000917    4.64  0.000208  ( 0.000282  0.014428  0.000021)
 54:   1380.30   0.046757  236.29  0.010571  ( 0.101573 -0.000028  0.015934)
 55:   1403.89   0.013233   66.87  0.002941  ( 0.001371 -0.054218 -0.000145)
 56:   1406.36   0.142302  719.14  0.031576  (-0.176393 -0.000422  0.021478)
 57:   1467.68   0.002568   12.98  0.000546  (-0.000401  0.023363 -0.000081)
 58:   1471.38   0.020706  104.64  0.004391  (-0.060664 -0.000068 -0.026670)
 59:   1502.53   0.005924   29.94  0.001230  (-0.000347  0.035074  0.000021)
 60:   1512.55   0.217261  1097.95  0.044824  ( 0.211714  0.000054 -0.001227)
 61:   1533.46   0.000113    0.57  0.000023  ( 0.000364  0.004774 -0.000027)
 62:   1591.79   0.004115   20.79  0.000807  ( 0.028400 -0.000020  0.000263)
 63:   1593.31   0.000001    0.01  0.000000  ( 0.000168  0.000447  0.000025)
 64:   1605.33   0.516141  2608.37  0.100334  (-0.316647 -0.000023  0.008265)
 65:   1662.83   0.013779   69.63  0.002586  ( 0.000005  0.050852 -0.000022)
 66:   3177.12   0.000316    1.60  0.000031  ( 0.000007  0.005569 -0.000002)
 67:   3200.21   0.000355    1.80  0.000035  ( 0.005855  0.000441 -0.000427)
 68:   3200.27   0.000178    0.90  0.000017  ( 0.004105 -0.000637 -0.000249)
 69:   3208.91   0.000273    1.38  0.000027  (-0.004674  0.000236 -0.002163)
 70:   3209.83   0.000316    1.60  0.000031  ( 0.000083 -0.005542 -0.000058)
 71:   3212.93   0.000077    0.39  0.000007  ( 0.002712 -0.000167  0.000345)
 72:   3214.30   0.001246    6.30  0.000121  ( 0.000052  0.010999  0.000043)
 73:   3221.07   0.000803    4.06  0.000078  ( 0.004325 -0.000137  0.007687)
 74:   3222.05   0.000321    1.62  0.000031  (-0.000318  0.005566  0.000227)
 75:   3225.39   0.020183  102.00  0.001953  ( 0.044168  0.000249 -0.001379)
 76:   3226.59   0.000590    2.98  0.000057  ( 0.001010 -0.007486  0.000012)
 77:   3283.53   0.000063    0.32  0.000006  ( 0.002318  0.000000 -0.000803)

--------------------------
THERMOCHEMISTRY AT 298.15K
--------------------------

Temperature         ...   298.15 K
Pressure            ...     1.00 atm
Total Mass          ...   180.25 AMU
Quasi RRHO          ...     True
Cut-Off Frequency   ...     1.00 cm^-1

Throughout the following assumptions are being made:
  (1) The electronic state is orbitally nondegenerate
      but the spin degeneracy is treated
  (2) There are no thermally accessible electronically excited states
  (3) Hindered rotations indicated by low frequency modes are not
      treated as such but are treated as vibrations and this may
      cause some error
  (4) All equations used are the standard statistical mechanics
      equations for an ideal gas
  (5) All vibrations are strictly harmonic

freq.      70.14  E(vib)   ...       0.50
freq.     107.02  E(vib)   ...       0.45
freq.     197.90  E(vib)   ...       0.35
freq.     235.57  E(vib)   ...       0.32
freq.     297.64  E(vib)   ...       0.27
freq.     332.52  E(vib)   ...       0.24
freq.     384.70  E(vib)   ...       0.20
freq.     399.91  E(vib)   ...       0.19
freq.     415.09  E(vib)   ...       0.19
freq.     422.15  E(vib)   ...       0.18
freq.     481.29  E(vib)   ...       0.15
freq.     557.55  E(vib)   ...       0.12
freq.     580.14  E(vib)   ...       0.11
freq.     605.50  E(vib)   ...       0.10
freq.     608.01  E(vib)   ...       0.10
freq.     614.70  E(vib)   ...       0.10
freq.     671.87  E(vib)   ...       0.08
freq.     676.47  E(vib)   ...       0.08
freq.     733.33  E(vib)   ...       0.06
freq.     791.59  E(vib)   ...       0.05
freq.     798.12  E(vib)   ...       0.05
freq.     837.11  E(vib)   ...       0.04
freq.     838.29  E(vib)   ...       0.04
freq.     846.25  E(vib)   ...       0.04
freq.     947.09  E(vib)   ...       0.03
freq.     960.09  E(vib)   ...       0.03
freq.     965.45  E(vib)   ...       0.03
freq.    1003.42  E(vib)   ...       0.02
freq.    1006.01  E(vib)   ...       0.02
freq.    1007.54  E(vib)   ...       0.02
freq.    1011.92  E(vib)   ...       0.02
freq.    1028.52  E(vib)   ...       0.02
freq.    1028.84  E(vib)   ...       0.02
freq.    1036.50  E(vib)   ...       0.02
freq.    1043.43  E(vib)   ...       0.02
freq.    1059.07  E(vib)   ...       0.02
freq.    1107.59  E(vib)   ...       0.02
freq.    1111.26  E(vib)   ...       0.01
freq.    1159.05  E(vib)   ...       0.01
freq.    1160.45  E(vib)   ...       0.01
freq.    1172.88  E(vib)   ...       0.01
freq.    1180.39  E(vib)   ...       0.01
freq.    1196.38  E(vib)   ...       0.01
freq.    1318.06  E(vib)   ...       0.01
freq.    1324.77  E(vib)   ...       0.01
freq.    1374.57  E(vib)   ...       0.01
freq.    1380.30  E(vib)   ...       0.01
freq.    1403.89  E(vib)   ...       0.00
freq.    1406.36  E(vib)   ...       0.00
freq.    1467.68  E(vib)   ...       0.00
freq.    1471.38  E(vib)   ...       0.00
freq.    1502.53  E(vib)   ...       0.00
freq.    1512.55  E(vib)   ...       0.00
freq.    1533.46  E(vib)   ...       0.00
freq.    1591.79  E(vib)   ...       0.00
freq.    1593.31  E(vib)   ...       0.00
freq.    1605.33  E(vib)   ...       0.00
freq.    1662.83  E(vib)   ...       0.00
freq.    3177.12  E(vib)   ...       0.00
freq.    3200.21  E(vib)   ...       0.00
freq.    3200.27  E(vib)   ...       0.00
freq.    3208.91  E(vib)   ...       0.00
freq.    3209.83  E(vib)   ...       0.00
freq.    3212.93  E(vib)   ...       0.00
freq.    3214.30  E(vib)   ...       0.00
freq.    3221.07  E(vib)   ...       0.00
freq.    3222.05  E(vib)   ...       0.00
freq.    3225.39  E(vib)   ...       0.00
freq.    3226.59  E(vib)   ...       0.00
freq.    3283.53  E(vib)   ...       0.00

------------
INNER ENERGY
------------

The inner energy is: U= E(el) + E(ZPE) + E(vib) + E(rot) + E(trans)
    E(el)   - is the total energy from the electronic structure calculation
              = E(kin-el) + E(nuc-el) + E(el-el) + E(nuc-nuc)
    E(ZPE)  - the the zero temperature vibrational energy from the frequency calculation
    E(vib)  - the the finite temperature correction to E(ZPE) due to population
              of excited vibrational states
    E(rot)  - is the rotational thermal energy
    E(trans)- is the translational thermal energy

Summary of contributions to the inner energy U:
Electronic energy                ...   -540.05565184 Eh
Zero point energy                ...      0.21287142 Eh     133.58 kcal/mol
Thermal vibrational correction   ...      0.00703769 Eh       4.42 kcal/mol
Thermal rotational correction    ...      0.00141627 Eh       0.89 kcal/mol
Thermal translational correction ...      0.00141627 Eh       0.89 kcal/mol
-----------------------------------------------------------------------
Total thermal energy                   -539.83291019 Eh

Summary of corrections to the electronic energy:
(perhaps to be used in another calculation)
Total thermal correction                  0.00987024 Eh       6.19 kcal/mol
Non-thermal (ZPE) correction              0.21287142 Eh     133.58 kcal/mol
-----------------------------------------------------------------------
Total correction                          0.22274166 Eh     139.77 kcal/mol

--------
ENTHALPY
--------

The enthalpy is H = U + kB*T
                kB is Boltzmann's constant
Total thermal energy              ...   -539.83291019 Eh
Thermal Enthalpy correction       ...      0.00094421 Eh       0.59 kcal/mol
-----------------------------------------------------------------------
Total Enthalpy                    ...   -539.83196598 Eh

Note: Only C1 symmetry has been detected, increase convergence thresholds
      if your molecule has a higher symmetry. Symmetry factor of 1.0 is
      used for the rotational entropy correction.

Note: Rotational entropy computed according to Herzberg
Infrared and Raman Spectra, Chapter V,1, Van Nostrand Reinhold, 1945
Point Group:  C1, Symmetry Number:   1
Rotational constants in cm-1:     0.054710     0.014397     0.012179

Vibrational entropy computed according to the QRRHO of S. Grimme
Chem.Eur.J. 2012 18 9955 using a reference frequency of 100.0 cm-1

-------
ENTROPY
-------

The entropy contributions are T*S = T*(S(el)+S(vib)+S(rot)+S(trans))
     S(el)   - electronic entropy
     S(vib)  - vibrational entropy
     S(rot)  - rotational entropy
     S(trans)- translational entropy
The entropies will be listed as multiplied by the temperature to get
units of energy

Electronic entropy                ...      0.00065446 Eh      0.41 kcal/mol

                             ****ORCA TERMINATED NORMALLY****
TOTAL RUN TIME: 0 days 2 hours 42 minutes 37 seconds 355 msec
