                         Program Version 6.0.0  -   RELEASE  -
|  1> !PBE0 opt aug-cc-pVTZ d3 TightSCF SlowConv RIJCOSX defgrid2
|  2>
|  3> %pal
|  4> nprocs 8
|  5> end
|  6>
|  7> %scf
|  8> MaxIter 1500
|  9> end
| 10>
| 11> %maxcore 3500
| 12>
| 13> !CPCM
| 14> %cpcm smd true
| 15> SMDsolvent "MeCN"
| 16> surfacetype gepol_ses
| 17> rsolv 2.19
| 18> end
| 19>
| 20> * xyz 0 1
| 21> C           0.86930262577353     -1.20261880029345      0.00017105333715
| 22> C           1.23795362702926      0.14976029336823      0.00011888618076
| 23> C           0.20861669065532      1.10178711313028      0.00004997159606
| 24> C          -1.14266539481067      0.75277814049696     -0.00001496332606
| 25> C          -1.49510132454858     -0.61091836423424      0.00001993066330
| 26> C          -0.47134803669840     -1.56560486246111      0.00011663608289
| 27> H          -0.73825756953350     -2.62759517616832      0.00016986000597
| 28> C          -2.93561352812274     -1.03199819846802     -0.00003268925957
| 29> H          -3.03042597379354     -2.12984128685189      0.00005376751285
| 30> H          -3.47239583982485     -0.64683793793607     -0.88649052066934
| 31> H          -3.47250072897996     -0.64668878799144      0.88629702354134
| 32> C          -2.20261220725801      1.81656948866912     -0.00009254079027
| 33> H          -2.85825633400454      1.73802365829102      0.88648022833246
| 34> H          -2.85834169985167      1.73782693594634     -0.88658224699833
| 35> H          -1.75673523006564      2.82424393630291     -0.00022124376864
| 36> H           0.47747434540426      2.16407970597621      0.00002545328680
| 37> C           2.63224685704945      0.60848489545892      0.00012709034736
| 38> C           3.73948848691454     -0.14591897511127     -0.00036178438147
| 39> H           3.70645882304827     -1.24152951701146     -0.00086807767724
| 40> H           4.73244049250843      0.31559854639130     -0.00029313441000
| 41> H           2.75218557093434      1.69979268676539      0.00055539249904
| 42> H           1.63531784817470     -1.98284589426942      0.00029190789491
| 43> *
| 44>
| 45>                          ****END OF INPUT****
 Total Charge           Charge          ....    0
 Multiplicity           Mult            ....    1
 Number of Electrons    NEL             ....   72
Dispersion correction           -0.020182978
FINAL SINGLE POINT ENERGY      -387.966630530752
Dispersion correction             ... done (  0.1 sec)
Dispersion correction           -0.020276702
FINAL SINGLE POINT ENERGY      -387.967894951608
Dispersion correction             ... done (  0.1 sec)
Dispersion correction           -0.020287276
FINAL SINGLE POINT ENERGY      -387.967903357297
Dispersion correction             ... done (  0.1 sec)
                    ***********************HURRAY********************

CARTESIAN COORDINATES (ANGSTROEM)
---------------------------------
  C      0.865537   -1.197585    0.000181
  C      1.229119    0.149208    0.000225
  C      0.206544    1.098887    0.000247
  C     -1.138243    0.750050    0.000147
  C     -1.488008   -0.607344   -0.000002
  C     -0.469382   -1.558430    0.000027
  H     -0.733652   -2.610574    0.000299
  C     -2.922001   -1.029412   -0.000257
  H     -3.011960   -2.115817    0.000111
  H     -3.451719   -0.646840   -0.877525
  H     -3.452253   -0.646267    0.876403
  C     -2.192842    1.811024    0.000071
  H     -2.840665    1.731972    0.877776
  H     -2.842248    1.729991   -0.876253
  H     -1.748680    2.806576   -0.001543
  H      0.473655    2.151249    0.000082
  C      2.618409    0.609156    0.000335
  C      3.715422   -0.146592   -0.000469
  H      3.680175   -1.230598   -0.001438
  H      4.698228    0.309023   -0.000109
  H      2.737917    1.689965    0.000932
  H      1.623880   -1.971096    0.000281

 Multiplicity           Mult            ....    1
 Number of Electrons    NEL             ....   72
 Basis Dimension        Dim             ....  736

ORBITAL ENERGIES
----------------

  NO   OCC          E(Eh)            E(eV)
   0   2.0000     -10.234861      -278.5047
   1   2.0000     -10.234384      -278.4918
   2   2.0000     -10.233751      -278.4745
   3   2.0000     -10.230648      -278.3901
   4   2.0000     -10.223458      -278.1944
   5   2.0000     -10.222644      -278.1723
   6   2.0000     -10.222551      -278.1698
   7   2.0000     -10.216493      -278.0049
   8   2.0000     -10.211024      -277.8561
   9   2.0000     -10.210907      -277.8529
  10   2.0000      -0.894558       -24.3422
  11   2.0000      -0.828691       -22.5498
  12   2.0000      -0.789585       -21.4857
  13   2.0000      -0.770887       -20.9769
  14   2.0000      -0.718105       -19.5406
  15   2.0000      -0.689581       -18.7645
  16   2.0000      -0.621460       -16.9108
  17   2.0000      -0.615599       -16.7513
  18   2.0000      -0.557499       -15.1703
  19   2.0000      -0.513728       -13.9792
  20   2.0000      -0.495804       -13.4915
  21   2.0000      -0.462069       -12.5735
  22   2.0000      -0.446092       -12.1388
  23   2.0000      -0.441731       -12.0201
  24   2.0000      -0.426139       -11.5958
  25   2.0000      -0.418810       -11.3964
  26   2.0000      -0.404939       -11.0190
  27   2.0000      -0.391333       -10.6487
  28   2.0000      -0.389914       -10.6101
  29   2.0000      -0.381554       -10.3826
  30   2.0000      -0.369014       -10.0414
  31   2.0000      -0.344772        -9.3817
  32   2.0000      -0.339315        -9.2332
  33   2.0000      -0.308955        -8.4071
  34   2.0000      -0.261027        -7.1029
  35   2.0000      -0.232856        -6.3363
  36   0.0000      -0.038143        -1.0379
  37   0.0000      -0.006088        -0.1657
  38   0.0000       0.002215         0.0603
  39   0.0000       0.011354         0.3090
  40   0.0000       0.015241         0.4147

MULLIKEN ATOMIC CHARGES
-----------------------
   0 C :   -0.495856
   1 C :    1.669649
   2 C :   -1.106379
   3 C :    0.410085
   4 C :    0.593078
   5 C :   -1.320122
   6 H :    0.301008
   7 C :   -0.781709
   8 H :    0.140538
   9 H :    0.263978
  10 H :    0.264604
  11 C :   -0.775257
  12 H :    0.263148
  13 H :    0.262087
  14 H :    0.141557
  15 H :   -0.027814
  16 C :   -0.051650
  17 C :   -1.043248
  18 H :    0.337477
  19 H :    0.266383
  20 H :    0.272071
  21 H :    0.416374
Sum of atomic charges:   -0.0000000

LOEWDIN ATOMIC CHARGES
----------------------
   0 C :    0.206627
   1 C :   -0.155735
   2 C :    0.221739
   3 C :   -0.107660
   4 C :   -0.112408
   5 C :    0.218249
   6 H :   -0.169656
   7 C :    0.580328
   8 H :   -0.169508
   9 H :   -0.157020
  10 H :   -0.157002
  11 C :    0.582259
  12 H :   -0.156732
  13 H :   -0.156893
  14 H :   -0.169067
  15 H :   -0.169156
  16 C :    0.162537
  17 C :    0.523683
  18 H :   -0.222855
  19 H :   -0.217915
  20 H :   -0.190490
  21 H :   -0.183325

  Mayer bond orders larger than 0.100000
B(  0-C ,  1-C ) :   0.4732 B(  0-C ,  2-C ) :  -0.7935 B(  0-C ,  3-C ) :  -0.1467
B(  0-C ,  5-C ) :   1.0052 B(  0-C , 11-C ) :   0.1048 B(  0-C , 16-C ) :   0.2504
B(  0-C , 21-H ) :   1.0599 B(  1-C ,  2-C ) :  -0.1317 B(  1-C ,  3-C ) :   0.2989
B(  1-C ,  4-C ) :  -0.3151 B(  1-C ,  7-C ) :   0.1263 B(  1-C , 15-H ) :  -0.2024
B(  1-C , 16-C ) :   0.1218 B(  1-C , 17-C ) :  -0.1931 B(  2-C ,  3-C ) :   0.7794
B(  2-C ,  4-C ) :  -0.2866 B(  2-C ,  5-C ) :   0.2233 B(  2-C , 11-C ) :  -0.2710
B(  2-C , 15-H ) :   1.8613 B(  2-C , 20-H ) :  -0.1435 B(  3-C ,  4-C ) :   1.4267
B(  3-C ,  5-C ) :   0.2498 B(  3-C ,  7-C ) :   0.1652 B(  3-C , 11-C ) :   0.1636
B(  3-C , 20-H ) :   0.1357 B(  3-C , 21-H ) :  -0.1874 B(  4-C ,  5-C ) :   0.8274
B(  4-C ,  6-H ) :   0.1770 B(  4-C ,  7-C ) :   0.3962 B(  4-C , 11-C ) :   0.4120
B(  4-C , 16-C ) :   0.1245 B(  5-C ,  6-H ) :   0.7880 B(  5-C ,  7-C ) :  -0.2113
B(  5-C , 17-C ) :  -0.1107 B(  5-C , 21-H ) :  -0.1281 B(  7-C ,  8-H ) :   1.0325
B(  7-C ,  9-H ) :   0.9608 B(  7-C , 10-H ) :   0.9580 B( 11-C , 12-H ) :   0.9587
B( 11-C , 13-H ) :   0.9589 B( 11-C , 14-H ) :   1.0172 B( 15-H , 16-C ) :  -0.1670
B( 15-H , 21-H ) :   0.1089 B( 16-C , 17-C ) :   1.1732 B( 16-C , 20-H ) :   0.9029
B( 17-C , 18-H ) :   0.9816 B( 17-C , 19-H ) :   0.9015 B( 17-C , 20-H ) :  -0.1531

Dispersion correction           -0.020289010
FINAL SINGLE POINT ENERGY      -387.967903881808

DIPOLE MOMENT
-------------

Method             : SCF
Type of density    : Electron Density
Multiplicity       :   1
Irrep              :   0
Energy             :  -387.9476148716532862 Eh
Relativity type    :
Basis              : AO
                                X                 Y                 Z
Electronic contribution:      3.984479184      -1.051051096       0.001413496
Nuclear contribution   :     -4.582846435       1.144544857      -0.001354038
                        -----------------------------------------
Total Dipole Moment    :     -0.598367252       0.093493761       0.000059457
                        -----------------------------------------
Magnitude (a.u.)       :      0.605627323
Magnitude (Debye)      :      1.539382320

Rotational constants in cm-1:             0.098249             0.028894             0.022513
Rotational constants in MHz :          2945.418593           866.221808           674.911012

                             ****ORCA TERMINATED NORMALLY****
TOTAL RUN TIME: 0 days 0 hours 18 minutes 58 seconds 754 msec
