                         Program Version 6.0.0  -   RELEASE  -
|  1> !r2SCAN aug-cc-pVTZ d3 TightSCF SlowConv RIJCOSX defgrid2
|  2>
|  3> %pal
|  4> nprocs 4
|  5> end
|  6>
|  7> %scf
|  8> MaxIter 1500
|  9> end
| 10>
| 11> %maxcore 3000
| 12>
| 13> !CPCM
| 14> %cpcm smd true
| 15> SMDsolvent "MeCN"
| 16> surfacetype gepol_ses
| 17> rsolv 2.19
| 18> end
| 19>
| 20> * xyz 1 2
| 21> C           1.56411298308256     -1.23948514477004     -0.10418100456342
| 22> C           2.94368174819201     -1.22399346873146     -0.08222881875616
| 23> C           3.62829509556698     -0.00527124649099      0.03533216996641
| 24> C           2.91690679987594      1.20436209520410      0.12189533623917
| 25> C           1.53837367111152      1.19695452226545      0.08354541546876
| 26> C           0.81270320076294     -0.02581622100353     -0.02471147709908
| 27> C          -0.62456099600129     -0.00774337256640     -0.04364594026659
| 28> C          -1.35469923195748     -1.19559169113903      0.09103295930174
| 29> C          -2.82277389645953     -1.26777692582385      0.16984319084975
| 30> C          -3.52145036714036      0.07542391320474      0.33030984445232
| 31> C          -2.84421744986526      1.11928751618814     -0.54346013749953
| 32> C          -1.37724631745571      1.28864519852577     -0.15684571320763
| 33> H          -0.86941817273049      1.94978262536238     -0.87811192857259
| 34> H          -1.30963007910482      1.80378079157142      0.82358949269975
| 35> H          -3.35155550657584      2.09318614428475     -0.45769951109418
| 36> H          -2.91426747189626      0.82232909406415     -1.60637738831724
| 37> H          -4.58799893909126     -0.02529210685066      0.07520987112053
| 38> H          -3.47978220021016      0.38792054597581      1.38967757724746
| 39> H          -3.14919539400669     -1.77633387981961     -0.76848551187315
| 40> H          -3.10223657823725     -1.99716471247534      0.95556557069623
| 41> H          -0.82292218871793     -2.14995476101911      0.14728310793351
| 42> H           1.00142564161039      2.14381086727947      0.15925446288599
| 43> H           3.45702786598241      2.14958081367639      0.21918826417843
| 44> H           4.72206867248084      0.00454899918573      0.05884230889501
| 45> H           3.50197914639113     -2.16035785555081     -0.15869714710684
| 46> H           1.05904956439360     -2.20048274054750     -0.21144959357865
| 47> *
| 48>
| 49>                          ****END OF INPUT****

CARTESIAN COORDINATES (ANGSTROEM)
---------------------------------
  C      1.564113   -1.239485   -0.104181
  C      2.943682   -1.223993   -0.082229
  C      3.628295   -0.005271    0.035332
  C      2.916907    1.204362    0.121895
  C      1.538374    1.196955    0.083545
  C      0.812703   -0.025816   -0.024711
  C     -0.624561   -0.007743   -0.043646
  C     -1.354699   -1.195592    0.091033
  C     -2.822774   -1.267777    0.169843
  C     -3.521450    0.075424    0.330310
  C     -2.844217    1.119288   -0.543460
  C     -1.377246    1.288645   -0.156846
  H     -0.869418    1.949783   -0.878112
  H     -1.309630    1.803781    0.823589
  H     -3.351556    2.093186   -0.457700
  H     -2.914267    0.822329   -1.606377
  H     -4.587999   -0.025292    0.075210
  H     -3.479782    0.387921    1.389678
  H     -3.149195   -1.776334   -0.768486
  H     -3.102237   -1.997165    0.955566
  H     -0.822922   -2.149955    0.147283
  H      1.001426    2.143811    0.159254
  H      3.457028    2.149581    0.219188
  H      4.722069    0.004549    0.058842
  H      3.501979   -2.160358   -0.158697
  H      1.059050   -2.200483   -0.211450

 Total Charge           Charge          ....    1
 Multiplicity           Mult            ....    2
 Number of Electrons    NEL             ....   85
 Basis Dimension        Dim             ....  874

ORBITAL ENERGIES
----------------
                 SPIN UP ORBITALS
  NO   OCC          E(Eh)            E(eV)
   0   1.0000     -10.112822      -275.1839
   1   1.0000     -10.109684      -275.0985
   2   1.0000     -10.097007      -274.7535
   3   1.0000     -10.081479      -274.3310
   4   1.0000     -10.079319      -274.2722
   5   1.0000     -10.074515      -274.1415
   6   1.0000     -10.066561      -273.9250
   7   1.0000     -10.064389      -273.8660
   8   1.0000     -10.059106      -273.7222
   9   1.0000     -10.055445      -273.6226
  10   1.0000     -10.039800      -273.1968
  11   1.0000     -10.039383      -273.1855
  12   1.0000      -0.869002       -23.6467
  13   1.0000      -0.835032       -22.7224
  14   1.0000      -0.772310       -21.0156
  15   1.0000      -0.749216       -20.3872
  16   1.0000      -0.736587       -20.0436
  17   1.0000      -0.715146       -19.4601
  18   1.0000      -0.627233       -17.0679
  19   1.0000      -0.620025       -16.8717
  20   1.0000      -0.583544       -15.8790
  21   1.0000      -0.573264       -15.5993
  22   1.0000      -0.520540       -14.1646
  23   1.0000      -0.504645       -13.7321
  24   1.0000      -0.470207       -12.7950
  25   1.0000      -0.453722       -12.3464
  26   1.0000      -0.448500       -12.2043
  27   1.0000      -0.424973       -11.5641
  28   1.0000      -0.415782       -11.3140
  29   1.0000      -0.414468       -11.2783
  30   1.0000      -0.405595       -11.0368
  31   1.0000      -0.391243       -10.6463
  32   1.0000      -0.389305       -10.5935
  33   1.0000      -0.375500       -10.2179
  34   1.0000      -0.366524        -9.9736
  35   1.0000      -0.344013        -9.3611
  36   1.0000      -0.333556        -9.0765
  37   1.0000      -0.310776        -8.4566
  38   1.0000      -0.306191        -8.3319
  39   1.0000      -0.301091        -8.1931
  40   1.0000      -0.296396        -8.0654
  41   1.0000      -0.269536        -7.3345
  42   1.0000      -0.245879        -6.6907
  43   0.0000      -0.116198        -3.1619
  44   0.0000      -0.060777        -1.6538
  45   0.0000      -0.025931        -0.7056
  46   0.0000       0.001782         0.0485
  47   0.0000       0.015285         0.4159

                 SPIN DOWN ORBITALS
  NO   OCC          E(Eh)            E(eV)
   0   1.0000     -10.110447      -275.1193
   1   1.0000     -10.102035      -274.8903
   2   1.0000     -10.096234      -274.7325
   3   1.0000     -10.077593      -274.2253
   4   1.0000     -10.076777      -274.2031
   5   1.0000     -10.072828      -274.0956
   6   1.0000     -10.067438      -273.9489
   7   1.0000     -10.065817      -273.9048
   8   1.0000     -10.059137      -273.7230
   9   1.0000     -10.055473      -273.6233
  10   1.0000     -10.039756      -273.1957
  11   1.0000     -10.039350      -273.1846
  12   1.0000      -0.862196       -23.4616
  13   1.0000      -0.827404       -22.5148
  14   1.0000      -0.769320       -20.9342
  15   1.0000      -0.745794       -20.2941
  16   1.0000      -0.731949       -19.9174
  17   1.0000      -0.706314       -19.2198
  18   1.0000      -0.624917       -17.0049
  19   1.0000      -0.615302       -16.7432
  20   1.0000      -0.579055       -15.7569
  21   1.0000      -0.570542       -15.5252
  22   1.0000      -0.519499       -14.1363
  23   1.0000      -0.500149       -13.6097
  24   1.0000      -0.468035       -12.7359
  25   1.0000      -0.452146       -12.3035
  26   1.0000      -0.444460       -12.0944
  27   1.0000      -0.420282       -11.4365
  28   1.0000      -0.414183       -11.2705
  29   1.0000      -0.411473       -11.1968
  30   1.0000      -0.402713       -10.9584
  31   1.0000      -0.388209       -10.5637
  32   1.0000      -0.381097       -10.3702
  33   1.0000      -0.372798       -10.1443
  34   1.0000      -0.356863        -9.7107
  35   1.0000      -0.343219        -9.3395
  36   1.0000      -0.332622        -9.0511
  37   1.0000      -0.308565        -8.3965
  38   1.0000      -0.304109        -8.2752
  39   1.0000      -0.297348        -8.0913
  40   1.0000      -0.283123        -7.7042
  41   1.0000      -0.264877        -7.2077
  42   0.0000      -0.205043        -5.5795
  43   0.0000      -0.083957        -2.2846
  44   0.0000      -0.053835        -1.4649
  45   0.0000      -0.004494        -0.1223
  46   0.0000       0.003912         0.1065

MULLIKEN ATOMIC CHARGES AND SPIN POPULATIONS
--------------------------------------------
   0 C :   -0.629895    0.165868
   1 C :   -0.872270   -0.110688
   2 C :   -0.098792    0.233313
   3 C :   -1.045406   -0.062083
   4 C :   -0.540070    0.085050
   5 C :    1.924759    0.100510
   6 C :    2.162005    0.111721
   7 C :   -1.141356    0.365940
   8 C :   -0.098541   -0.070188
   9 C :   -0.264851   -0.003131
  10 C :   -0.380030    0.002094
  11 C :   -0.139818    0.001556
  12 H :    0.114172   -0.001076
  13 H :    0.193536    0.016768
  14 H :    0.173661    0.001287
  15 H :    0.090033   -0.004167
  16 H :    0.203825   -0.001206
  17 H :    0.107589   -0.000313
  18 H :    0.177197    0.065746
  19 H :    0.171419    0.027402
  20 H :   -0.229875    0.048654
  21 H :   -0.207196    0.004573
  22 H :    0.508006   -0.003911
  23 H :    0.428299    0.018256
  24 H :    0.479933   -0.002137
  25 H :   -0.086335    0.010162
Sum of atomic charges         :    1.0000000

LOEWDIN ATOMIC CHARGES AND SPIN POPULATIONS
-------------------------------------------
   0 C :    0.263489    0.071978
   1 C :    0.248442    0.014266
   2 C :    0.252456    0.105025
   3 C :    0.251260    0.024066
   4 C :    0.259113    0.055477
   5 C :   -0.050055    0.080858
   6 C :    0.021187    0.151190
   7 C :    0.372777    0.247071
   8 C :    0.328468    0.081331
   9 C :    0.301170    0.004237
  10 C :    0.301556    0.003156
  11 C :    0.311414    0.029125
  12 H :   -0.128474    0.004032
  13 H :   -0.100276    0.008795
  14 H :   -0.121116    0.000335
  15 H :   -0.117240    0.000190
  16 H :   -0.123135   -0.000116
  17 H :   -0.120903    0.000829
  18 H :   -0.097412    0.025963
  19 H :   -0.107768    0.013329
  20 H :   -0.152267    0.040786
  21 H :   -0.166763    0.010523
  22 H :   -0.152223   -0.003678
  23 H :   -0.146232    0.025506
  24 H :   -0.153472   -0.007259
  25 H :   -0.173997    0.012985

  Mayer bond orders larger than 0.100000
B(  0-C ,  1-C ) :   1.0827 B(  0-C ,  2-C ) :  -0.1655 B(  0-C ,  4-C ) :  -0.9577
B(  0-C ,  5-C ) :  -0.2228 B(  0-C ,  6-C ) :   0.3363 B(  0-C , 11-C ) :   0.1036
B(  0-C , 22-H ) :   0.1062 B(  0-C , 25-H ) :   1.8049 B(  1-C ,  2-C ) :   0.9645
B(  1-C ,  3-C ) :   0.3887 B(  1-C , 21-H ) :  -0.1397 B(  1-C , 24-H ) :   0.4350
B(  1-C , 25-H ) :  -0.1802 B(  2-C ,  3-C ) :   1.0017 B(  2-C ,  4-C ) :  -0.1874
B(  2-C ,  5-C ) :  -0.2809 B(  2-C ,  6-C ) :   0.3353 B(  2-C , 23-H ) :   0.6705
B(  2-C , 25-H ) :  -0.1010 B(  3-C ,  4-C ) :   0.9769 B(  3-C , 21-H ) :  -0.1099
B(  3-C , 22-H ) :   0.3755 B(  3-C , 25-H ) :  -0.1728 B(  4-C ,  6-C ) :   0.3748
B(  4-C ,  7-C ) :   0.1597 B(  4-C , 21-H ) :   2.0018 B(  4-C , 25-H ) :   0.1184
B(  5-C ,  7-C ) :   0.3100 B(  5-C , 21-H ) :  -0.1345 B(  6-C ,  7-C ) :  -0.7533
B(  6-C ,  9-C ) :  -0.1393 B(  6-C , 10-C ) :   0.1022 B(  6-C , 11-C ) :   0.5517
B(  6-C , 12-H ) :  -0.1297 B(  6-C , 13-H ) :  -0.1042 B(  6-C , 20-H ) :  -0.5336
B(  6-C , 21-H ) :  -0.4538 B(  6-C , 22-H ) :   0.1703 B(  6-C , 24-H ) :   0.1349
B(  6-C , 25-H ) :  -0.4324 B(  7-C ,  8-C ) :   0.5600 B(  7-C ,  9-C ) :   0.1767
B(  7-C , 11-C ) :  -0.2617 B(  7-C , 19-H ) :  -0.1347 B(  7-C , 20-H ) :   1.8718
B(  8-C ,  9-C ) :   0.9314 B(  8-C , 10-C ) :   0.1291 B(  8-C , 18-H ) :   0.9813
B(  8-C , 19-H ) :   0.9670 B(  8-C , 20-H ) :  -0.2110 B(  9-C , 10-C ) :   0.9211
B(  9-C , 16-H ) :   0.9220 B(  9-C , 17-H ) :   1.0216 B( 10-C , 11-C ) :   0.9076
B( 10-C , 14-H ) :   0.9420 B( 10-C , 15-H ) :   1.0309 B( 11-C , 12-H ) :   1.0487
B( 11-C , 13-H ) :   0.9704 B( 21-H , 25-H ) :   0.2646

Dispersion correction           -0.009116122
FINAL SINGLE POINT ENERGY      -465.403080905019

DIPOLE MOMENT
-------------

Method             : SCF
Type of density    : Electron Density
Multiplicity       :   2
Irrep              :   0
Energy             :  -465.3939647831288653 Eh
Relativity type    :
Basis              : AO
                                X                 Y                 Z
Electronic contribution:      9.126492151      -1.523747351       0.143427787
Nuclear contribution   :     -9.269537752       0.974022475      -0.092780432
                        -----------------------------------------
Total Dipole Moment    :     -0.143045601      -0.549724876       0.050647354
                        -----------------------------------------
Magnitude (a.u.)       :      0.570284699
Magnitude (Debye)      :      1.449548506

Rotational constants in cm-1:             0.084417             0.017556             0.014881
Rotational constants in MHz :          2530.764914           526.301253           446.117666

                             ****ORCA TERMINATED NORMALLY****
TOTAL RUN TIME: 0 days 0 hours 9 minutes 23 seconds 868 msec
