                         Program Version 6.0.0  -   RELEASE  -
|  1> !r2SCANh aug-cc-pVTZ d3 TightSCF SlowConv RIJCOSX defgrid2
|  2>
|  3> %pal
|  4> nprocs 4
|  5> end
|  6>
|  7> %scf
|  8> MaxIter 1500
|  9> end
| 10>
| 11> %maxcore 3000
| 12>
| 13> !CPCM
| 14> %cpcm smd true
| 15> SMDsolvent "MeCN"
| 16> surfacetype gepol_ses
| 17> rsolv 2.19
| 18> end
| 19>
| 20> * xyz 0 1
| 21> C          -0.45962349392076      1.19930168964946      0.00062202556794
| 22> C           0.93187577371451      1.21292315738455      0.00021003045593
| 23> C           1.62461355579551      0.00264447710890     -0.00023259743760
| 24> C           0.94147031950354     -1.21572927971146     -0.00024754015947
| 25> C          -0.44629067380136     -1.21277951487668      0.00019404075702
| 26> C          -1.16457141606032     -0.01003943569872      0.00066278241731
| 27> C          -2.65943474979432     -0.08619562751851      0.00125896770752
| 28> O          -3.21849789447990     -1.16065283026292     -0.00068065256956
| 29> C          -3.44514706371262      1.20360842703596     -0.00042582391608
| 30> H          -3.20900994320141      1.81348807306859      0.88908099447108
| 31> H          -3.20722570566812      1.81245947226407     -0.89017014718689
| 32> H          -4.51791848417965      0.96213295731483     -0.00129821423503
| 33> H          -1.01178782473404     -2.14828242074604      0.00023169281017
| 34> H           1.50422972929259     -2.15194601130068     -0.00059587432262
| 35> Cl          3.35241439280556      0.01090662049481     -0.00078466924471
| 36> H           1.48532961925900      2.15441464352816      0.00021462148241
| 37> H          -0.99337054081820      2.15308200226567      0.00096246340259
| 38> *
| 39>
| 40>                          ****END OF INPUT****

CARTESIAN COORDINATES (ANGSTROEM)
---------------------------------
  C     -0.459623    1.199302    0.000622
  C      0.931876    1.212923    0.000210
  C      1.624614    0.002644   -0.000233
  C      0.941470   -1.215729   -0.000248
  C     -0.446291   -1.212780    0.000194
  C     -1.164571   -0.010039    0.000663
  C     -2.659435   -0.086196    0.001259
  O     -3.218498   -1.160653   -0.000681
  C     -3.445147    1.203608   -0.000426
  H     -3.209010    1.813488    0.889081
  H     -3.207226    1.812459   -0.890170
  H     -4.517918    0.962133   -0.001298
  H     -1.011788   -2.148282    0.000232
  H      1.504230   -2.151946   -0.000596
  Cl     3.352414    0.010907   -0.000785
  H      1.485330    2.154415    0.000215
  H     -0.993371    2.153082    0.000962

 Total Charge           Charge          ....    0
 Multiplicity           Mult            ....    1
 Number of Electrons    NEL             ....   80
 Basis Dimension        Dim             ....  625

ORBITAL ENERGIES
----------------

  NO   OCC          E(Eh)            E(eV)
   0   2.0000    -101.596700     -2764.5868
   1   2.0000     -19.107592      -519.9440
   2   2.0000     -10.250254      -278.9236
   3   2.0000     -10.236487      -278.5490
   4   2.0000     -10.180543      -277.0267
   5   2.0000     -10.178115      -276.9606
   6   2.0000     -10.178010      -276.9577
   7   2.0000     -10.177682      -276.9488
   8   2.0000     -10.176507      -276.9168
   9   2.0000     -10.151043      -276.2239
  10   2.0000      -9.507901      -258.7231
  11   2.0000      -7.226726      -196.6492
  12   2.0000      -7.218788      -196.4332
  13   2.0000      -7.218169      -196.4164
  14   2.0000      -1.052992       -28.6534
  15   2.0000      -0.904194       -24.6044
  16   2.0000      -0.849127       -23.1059
  17   2.0000      -0.767456       -20.8835
  18   2.0000      -0.760250       -20.6875
  19   2.0000      -0.721457       -19.6318
  20   2.0000      -0.623237       -16.9591
  21   2.0000      -0.617081       -16.7916
  22   2.0000      -0.551923       -15.0186
  23   2.0000      -0.503332       -13.6964
  24   2.0000      -0.476169       -12.9572
  25   2.0000      -0.459267       -12.4973
  26   2.0000      -0.442757       -12.0480
  27   2.0000      -0.435575       -11.8526
  28   2.0000      -0.424151       -11.5417
  29   2.0000      -0.416452       -11.3322
  30   2.0000      -0.400972       -10.9110
  31   2.0000      -0.385524       -10.4906
  32   2.0000      -0.362792        -9.8721
  33   2.0000      -0.359647        -9.7865
  34   2.0000      -0.348029        -9.4703
  35   2.0000      -0.334467        -9.1013
  36   2.0000      -0.314419        -8.5558
  37   2.0000      -0.268980        -7.3193
  38   2.0000      -0.252743        -6.8775
  39   2.0000      -0.247531        -6.7357
  40   0.0000      -0.079795        -2.1713
  41   0.0000      -0.039586        -1.0772
  42   0.0000       0.005463         0.1487
  43   0.0000       0.011749         0.3197
  44   0.0000       0.013620         0.3706

MULLIKEN ATOMIC CHARGES
-----------------------
   0 C :   -0.264964
   1 C :   -0.907042
   2 C :    0.572109
   3 C :   -0.721245
   4 C :   -0.867249
   5 C :    1.480946
   6 C :    0.731936
   7 O :   -0.951066
   8 C :   -0.589701
   9 H :    0.254041
  10 H :    0.254570
  11 H :    0.162946
  12 H :    0.218038
  13 H :    0.463829
  14 Cl:   -0.418637
  15 H :    0.421855
  16 H :    0.159634
Sum of atomic charges:   -0.0000000

LOEWDIN ATOMIC CHARGES
----------------------
   0 C :    0.203107
   1 C :    0.122284
   2 C :   -0.797446
   3 C :    0.119711
   4 C :    0.189115
   5 C :   -0.133647
   6 C :   -0.548071
   7 O :    0.484417
   8 C :    0.572989
   9 H :   -0.156827
  10 H :   -0.156770
  11 H :   -0.176559
  12 H :   -0.182341
  13 H :   -0.185182
  14 Cl:    0.999232
  15 H :   -0.184052
  16 H :   -0.169957

  Mayer bond orders larger than 0.100000
B(  0-C ,  1-C ) :   0.8375 B(  0-C ,  3-C ) :  -0.1405 B(  0-C ,  4-C ) :  -0.3217
B(  0-C ,  5-C ) :   0.4590 B(  0-C , 16-H ) :   1.1856 B(  1-C ,  2-C ) :   1.2442
B(  1-C ,  3-C ) :   0.1708 B(  1-C , 14-Cl) :   0.1131 B(  1-C , 15-H ) :   0.6473
B(  2-C ,  3-C ) :   1.2165 B(  2-C ,  4-C ) :  -0.1357 B(  2-C , 14-Cl) :   0.4460
B(  3-C ,  4-C ) :   1.2700 B(  3-C ,  5-C ) :  -0.1096 B(  3-C , 13-H ) :   0.6172
B(  3-C , 14-Cl) :   0.1254 B(  4-C ,  5-C ) :   0.2921 B(  4-C ,  6-C ) :   0.2518
B(  4-C , 12-H ) :   0.9456 B(  5-C ,  6-C ) :   0.3379 B(  5-C ,  7-O ) :   0.1479
B(  5-C ,  8-C ) :   0.1156 B(  5-C , 16-H ) :  -0.1348 B(  6-C ,  7-O ) :   0.8850
B(  6-C ,  8-C ) :   0.9373 B(  8-C ,  9-H ) :   0.9543 B(  8-C , 10-H ) :   0.9534
B(  8-C , 11-H ) :   0.9658

Dispersion correction           -0.006092807
FINAL SINGLE POINT ENERGY      -844.406496645561

DIPOLE MOMENT
-------------

Method             : SCF
Type of density    : Electron Density
Multiplicity       :   1
Irrep              :   0
Energy             :  -844.4004038386209459 Eh
Relativity type    :
Basis              : AO
                                X                 Y                 Z
Electronic contribution:     14.091798348      -2.954965764       0.001115075
Nuclear contribution   :    -13.920982286       4.293464133       0.000100521
                        -----------------------------------------
Total Dipole Moment    :      0.170816062       1.338498369       0.001215596
                        -----------------------------------------
Magnitude (a.u.)       :      1.349354471
Magnitude (Debye)      :      3.429786495

Rotational constants in cm-1:             0.122841             0.018421             0.016068
Rotational constants in MHz :          3682.693671           552.250394           481.695849

                             ****ORCA TERMINATED NORMALLY****
TOTAL RUN TIME: 0 days 0 hours 5 minutes 18 seconds 388 msec
