                         Program Version 6.0.0  -   RELEASE  -
|  1> !B3LYP aug-cc-pVTZ d3 TightSCF SlowConv RIJCOSX defgrid2
|  2>
|  3> %pal
|  4> nprocs 4
|  5> end
|  6>
|  7> %scf
|  8> MaxIter 1500
|  9> end
| 10>
| 11> %maxcore 3000
| 12>
| 13> !CPCM
| 14> %cpcm smd true
| 15> SMDsolvent "MeCN"
| 16> surfacetype gepol_ses
| 17> rsolv 2.19
| 18> end
| 19>
| 20> * xyz 0 1
| 21> C           4.13966964128756      1.20735034805801      0.00018109983423
| 22> C           4.83985938717942      0.00012909944918     -0.00011080706815
| 23> C           4.13977283020272     -1.20715138721907     -0.00030540880609
| 24> C           2.74896974902717     -1.21166073629652     -0.00020947111922
| 25> C           2.03371707188302      0.00000535590610      0.00007936492405
| 26> C           2.74886648576486      1.21173557633403      0.00027305110837
| 27> H           2.19700573398250      2.15507580320245      0.00050096603306
| 28> C           0.60926575165477     -0.00003899905682      0.00017121398327
| 29> C          -0.60926677013399     -0.00011851011831      0.00032726130009
| 30> C          -2.03371710027454     -0.00005107798655      0.00019494163829
| 31> C          -2.74898416366441     -1.21170960248422      0.00036780306847
| 32> C          -4.13978643826222     -1.20718728138590      0.00021041667338
| 33> C          -4.83985863236214      0.00010214935927     -0.00011716793755
| 34> C          -4.13965447812715      1.20731478629068     -0.00028483680888
| 35> C          -2.74885097774675      1.21168640857502     -0.00012607465811
| 36> H          -2.19698244285642      2.15502223469334     -0.00025694123114
| 37> H          -4.68454348342066      2.15603211713716     -0.00054208004626
| 38> H          -5.93383287072922      0.00016036307699     -0.00023936958784
| 39> H          -4.68478251870500     -2.15584320000508      0.00034538941345
| 40> H          -2.19721645884462     -2.15510431633366      0.00062541194967
| 41> H           2.19719446528860     -2.15505107012925     -0.00036096765238
| 42> H           4.68475743011085     -2.15581340727935     -0.00053331434756
| 43> H           5.93383355030704      0.00017426906263     -0.00018342642694
| 44> H           4.68456993843861      2.15606107714988      0.00033824576380
| 45> *
| 46>
| 47>                          ****END OF INPUT****

CARTESIAN COORDINATES (ANGSTROEM)
---------------------------------
  C      4.139670    1.207350    0.000181
  C      4.839859    0.000129   -0.000111
  C      4.139773   -1.207151   -0.000305
  C      2.748970   -1.211661   -0.000209
  C      2.033717    0.000005    0.000079
  C      2.748866    1.211736    0.000273
  H      2.197006    2.155076    0.000501
  C      0.609266   -0.000039    0.000171
  C     -0.609267   -0.000119    0.000327
  C     -2.033717   -0.000051    0.000195
  C     -2.748984   -1.211710    0.000368
  C     -4.139786   -1.207187    0.000210
  C     -4.839859    0.000102   -0.000117
  C     -4.139654    1.207315   -0.000285
  C     -2.748851    1.211686   -0.000126
  H     -2.196982    2.155022   -0.000257
  H     -4.684543    2.156032   -0.000542
  H     -5.933833    0.000160   -0.000239
  H     -4.684783   -2.155843    0.000345
  H     -2.197216   -2.155104    0.000625
  H      2.197194   -2.155051   -0.000361
  H      4.684757   -2.155813   -0.000533
  H      5.933834    0.000174   -0.000183
  H      4.684570    2.156061    0.000338

 Total Charge           Charge          ....    0
 Multiplicity           Mult            ....    1
 Number of Electrons    NEL             ....   94
 Basis Dimension        Dim             ....  874

ORBITAL ENERGIES
----------------

  NO   OCC          E(Eh)            E(eV)
   0   2.0000     -10.207268      -277.7539
   1   2.0000     -10.207259      -277.7536
   2   2.0000     -10.184512      -277.1347
   3   2.0000     -10.184501      -277.1344
   4   2.0000     -10.184497      -277.1342
   5   2.0000     -10.184492      -277.1341
   6   2.0000     -10.183702      -277.1126
   7   2.0000     -10.181476      -277.0520
   8   2.0000     -10.181184      -277.0441
   9   2.0000     -10.181178      -277.0439
  10   2.0000     -10.180668      -277.0301
  11   2.0000     -10.180667      -277.0300
  12   2.0000     -10.180324      -277.0207
  13   2.0000     -10.180313      -277.0204
  14   2.0000      -0.868500       -23.6331
  15   2.0000      -0.865189       -23.5430
  16   2.0000      -0.795482       -21.6462
  17   2.0000      -0.769749       -20.9459
  18   2.0000      -0.751018       -20.4362
  19   2.0000      -0.750857       -20.4319
  20   2.0000      -0.719864       -19.5885
  21   2.0000      -0.636622       -17.3234
  22   2.0000      -0.609379       -16.5821
  23   2.0000      -0.608735       -16.5645
  24   2.0000      -0.607943       -16.5430
  25   2.0000      -0.545505       -14.8439
  26   2.0000      -0.529579       -14.4106
  27   2.0000      -0.484097       -13.1730
  28   2.0000      -0.472891       -12.8680
  29   2.0000      -0.463308       -12.6072
  30   2.0000      -0.458544       -12.4776
  31   2.0000      -0.436304       -11.8724
  32   2.0000      -0.431413       -11.7393
  33   2.0000      -0.422495       -11.4967
  34   2.0000      -0.422190       -11.4884
  35   2.0000      -0.394975       -10.7478
  36   2.0000      -0.382121       -10.3980
  37   2.0000      -0.360822        -9.8185
  38   2.0000      -0.357098        -9.7171
  39   2.0000      -0.350830        -9.5466
  40   2.0000      -0.347033        -9.4433
  41   2.0000      -0.326887        -8.8950
  42   2.0000      -0.279599        -7.6083
  43   2.0000      -0.278485        -7.5779
  44   2.0000      -0.263334        -7.1657
  45   2.0000      -0.263185        -7.1616
  46   2.0000      -0.221838        -6.0365
  47   0.0000      -0.060037        -1.6337
  48   0.0000      -0.020266        -0.5515
  49   0.0000      -0.018070        -0.4917
  50   0.0000      -0.007477        -0.2034
  51   0.0000      -0.006139        -0.1671

MULLIKEN ATOMIC CHARGES
-----------------------
   0 C :   -0.905488
   1 C :    0.079096
   2 C :   -0.905413
   3 C :   -1.090636
   4 C :    1.828953
   5 C :   -1.063642
   6 H :   -0.415032
   7 C :    1.201912
   8 C :    1.196525
   9 C :    1.888919
  10 C :   -1.034609
  11 C :   -0.862994
  12 C :    0.128895
  13 C :   -0.808673
  14 C :   -1.093080
  15 H :   -0.516465
  16 H :    0.470842
  17 H :    0.570344
  18 H :    0.398827
  19 H :   -0.353367
  20 H :   -0.439004
  21 H :    0.486210
  22 H :    0.700661
  23 H :    0.537216
Sum of atomic charges:    0.0000000

LOEWDIN ATOMIC CHARGES
----------------------
   0 C :    0.190493
   1 C :    0.188298
   2 C :    0.190484
   3 C :    0.192597
   4 C :   -0.218483
   5 C :    0.192607
   6 H :   -0.160992
   7 C :    0.084320
   8 C :    0.084309
   9 C :   -0.218462
  10 C :    0.192611
  11 C :    0.190511
  12 C :    0.188309
  13 C :    0.190513
  14 C :    0.192608
  15 H :   -0.161029
  16 H :   -0.165908
  17 H :   -0.166580
  18 H :   -0.165911
  19 H :   -0.160979
  20 H :   -0.161009
  21 H :   -0.165898
  22 H :   -0.166535
  23 H :   -0.165876

  Mayer bond orders larger than 0.100000
B(  0-C ,  1-C ) :   1.1947 B(  0-C ,  2-C ) :   0.4503 B(  0-C ,  3-C ) :   0.2655
B(  0-C ,  4-C ) :   0.3001 B(  0-C ,  5-C ) :   1.2362 B(  0-C ,  7-C ) :   0.5086
B(  0-C ,  8-C ) :  -0.9100 B(  0-C , 11-C ) :   0.1082 B(  0-C , 13-C ) :  -0.1806
B(  0-C , 15-H ) :   0.1410 B(  0-C , 16-H ) :  -0.1084 B(  0-C , 17-H ) :   0.1354
B(  0-C , 22-H ) :  -0.1092 B(  0-C , 23-H ) :   0.3368 B(  1-C ,  2-C ) :   1.1931
B(  1-C ,  3-C ) :  -0.5214 B(  1-C ,  4-C ) :  -0.3075 B(  1-C ,  5-C ) :  -0.4823
B(  1-C ,  6-H ) :  -0.1588 B(  1-C ,  7-C ) :  -0.1555 B(  1-C ,  8-C ) :   0.9831
B(  1-C , 11-C ) :   0.1131 B(  1-C , 12-C ) :   0.1140 B(  1-C , 20-H ) :  -0.1900
B(  1-C , 21-H ) :   0.1989 B(  1-C , 22-H ) :   0.3945 B(  1-C , 23-H ) :   0.1845
B(  2-C ,  3-C ) :   1.2464 B(  2-C ,  4-C ) :   0.2604 B(  2-C ,  5-C ) :   0.2548
B(  2-C ,  7-C ) :   0.5437 B(  2-C ,  8-C ) :  -0.9433 B(  2-C ,  9-C ) :  -0.1604
B(  2-C , 13-C ) :   0.1415 B(  2-C , 17-H ) :  -0.1932 B(  2-C , 21-H ) :   0.4387
B(  2-C , 22-H ) :  -0.1338 B(  3-C ,  5-C ) :  -0.9024 B(  3-C ,  6-H ) :   0.4123
B(  3-C ,  7-C ) :   0.1936 B(  3-C ,  9-C ) :   0.1536 B(  3-C , 10-C ) :   0.1750
B(  3-C , 18-H ) :  -0.1420 B(  3-C , 20-H ) :   2.6987 B(  3-C , 21-H ) :  -0.2411
B(  3-C , 22-H ) :  -0.1041 B(  4-C ,  6-H ) :  -0.2241 B(  4-C ,  7-C ) :  -0.1764
B(  4-C ,  8-C ) :   0.2902 B(  4-C ,  9-C ) :   0.4189 B(  4-C , 10-C ) :   0.1686
B(  4-C , 14-C ) :   0.1290 B(  4-C , 15-H ) :  -0.2418 B(  4-C , 19-H ) :  -0.1107
B(  4-C , 20-H ) :  -0.2178 B(  4-C , 21-H ) :   0.1675 B(  4-C , 23-H ) :   0.1707
B(  5-C ,  6-H ) :   2.5671 B(  5-C ,  7-C ) :   0.2038 B(  5-C , 14-C ) :   0.1271
B(  5-C , 16-H ) :  -0.1007 B(  5-C , 20-H ) :   0.4074 B(  5-C , 22-H ) :  -0.1159
B(  5-C , 23-H ) :  -0.2303 B(  6-H ,  7-C ) :  -0.3225 B(  6-H ,  8-C ) :  -0.9891
B(  6-H ,  9-C ) :  -0.1530 B(  6-H , 20-H ) :   0.7957 B(  6-H , 21-H ) :  -0.1298
B(  6-H , 22-H ) :  -0.2402 B(  7-C ,  8-C ) :   5.6177 B(  7-C ,  9-C ) :   0.4813
B(  7-C , 10-C ) :   0.1383 B(  7-C , 11-C ) :  -0.7662 B(  7-C , 12-C ) :   1.2315
B(  7-C , 13-C ) :  -0.5826 B(  7-C , 14-C ) :  -0.1121 B(  7-C , 15-H ) :  -1.3278
B(  7-C , 16-H ) :  -0.3042 B(  7-C , 17-H ) :   0.9275 B(  7-C , 18-H ) :  -0.5733
B(  7-C , 19-H ) :  -0.7743 B(  7-C , 20-H ) :  -0.2974 B(  7-C , 21-H ) :   0.4028
B(  7-C , 22-H ) :  -0.9066 B(  7-C , 23-H ) :   0.2541 B(  8-C ,  9-C ) :  -0.3143
B(  8-C , 10-C ) :   0.1456 B(  8-C , 11-C ) :   0.3788 B(  8-C , 12-C ) :  -0.3028
B(  8-C , 13-C ) :   0.3187 B(  8-C , 14-C ) :   0.2246 B(  8-C , 15-H ) :  -0.1783
B(  8-C , 16-H ) :   0.4410 B(  8-C , 17-H ) :  -0.6066 B(  8-C , 18-H ) :   0.5625
B(  8-C , 19-H ) :  -0.4261 B(  8-C , 20-H ) :  -1.0737 B(  8-C , 21-H ) :  -0.2519
B(  8-C , 22-H ) :   1.4270 B(  9-C , 11-C ) :   0.2270 B(  9-C , 12-C ) :  -0.2600
B(  9-C , 13-C ) :   0.2640 B(  9-C , 15-H ) :  -0.3093 B(  9-C , 16-H ) :   0.1768
B(  9-C , 18-H ) :   0.1669 B(  9-C , 19-H ) :  -0.2540 B(  9-C , 20-H ) :  -0.1464
B(  9-C , 22-H ) :   0.3003 B(  9-C , 23-H ) :   0.1098 B( 10-C , 11-C ) :   1.1893
B( 10-C , 12-C ) :  -0.4769 B( 10-C , 13-C ) :   0.2148 B( 10-C , 14-C ) :  -0.9395
B( 10-C , 15-H ) :   0.4058 B( 10-C , 18-H ) :  -0.1641 B( 10-C , 19-H ) :   2.4412
B( 10-C , 21-H ) :  -0.1752 B( 10-C , 22-H ) :   0.1227 B( 11-C , 12-C ) :   1.0998
B( 11-C , 13-C ) :   0.3486 B( 11-C , 14-C ) :   0.3350 B( 11-C , 17-H ) :  -0.1513
B( 11-C , 18-H ) :   0.6619 B( 11-C , 21-H ) :  -0.1006 B( 12-C , 13-C ) :   1.1042
B( 12-C , 14-C ) :  -0.5667 B( 12-C , 15-H ) :  -0.2782 B( 12-C , 16-H ) :   0.1501
B( 12-C , 17-H ) :   0.5665 B( 12-C , 19-H ) :  -0.2102 B( 12-C , 22-H ) :   0.1057
B( 13-C , 14-C ) :   1.1244 B( 13-C , 16-H ) :   0.5092 B( 13-C , 17-H ) :  -0.1134
B( 13-C , 19-H ) :  -0.1179 B( 13-C , 21-H ) :   0.1667 B( 13-C , 23-H ) :  -0.1217
B( 14-C , 15-H ) :   2.8942 B( 14-C , 16-H ) :  -0.2744 B( 14-C , 19-H ) :   0.3672
B( 15-H , 17-H ) :  -0.1549 B( 15-H , 19-H ) :   0.8053 B( 15-H , 20-H ) :   0.1161
B( 15-H , 22-H ) :  -0.3057 B( 16-H , 19-H ) :  -0.1060 B( 17-H , 19-H ) :  -0.1213
B( 17-H , 20-H ) :  -0.1114 B( 17-H , 22-H ) :   0.1769 B( 20-H , 22-H ) :  -0.2550
B( 20-H , 23-H ) :  -0.1705

Dispersion correction           -0.047300541
FINAL SINGLE POINT ENERGY      -539.371342848463

DIPOLE MOMENT
-------------

Method             : SCF
Type of density    : Electron Density
Multiplicity       :   1
Irrep              :   0
Energy             :  -539.3240423072179510 Eh
Relativity type    :
Basis              : AO
                                X                 Y                 Z
Electronic contribution:     -0.000006192      -0.000241327       0.000480368
Nuclear contribution   :      0.000001470       0.000375094      -0.000682746
                        -----------------------------------------
Total Dipole Moment    :     -0.000004722       0.000133766      -0.000202378
                        -----------------------------------------
Magnitude (a.u.)       :      0.000242637
Magnitude (Debye)      :      0.000616733

Rotational constants in cm-1:             0.094691             0.008279             0.007613
Rotational constants in MHz :          2838.770806           248.185899           228.232190

                             ****ORCA TERMINATED NORMALLY****
TOTAL RUN TIME: 0 days 0 hours 9 minutes 49 seconds 791 msec
