                         Program Version 6.0.0  -   RELEASE  -
|  1> !PBE0 aug-cc-pVTZ d3 TightSCF SlowConv RIJCOSX defgrid2
|  2>
|  3> %pal
|  4> nprocs 4
|  5> end
|  6>
|  7> %scf
|  8> MaxIter 1500
|  9> end
| 10>
| 11> %maxcore 3000
| 12>
| 13> !CPCM
| 14> %cpcm smd true
| 15> SMDsolvent "MeCN"
| 16> surfacetype gepol_ses
| 17> rsolv 2.19
| 18> end
| 19>
| 20> * xyz 0 1
| 21> C          -2.35855566249028     -1.18298734946581      0.44746508492782
| 22> C          -3.63998601494038     -0.64494677752617      0.40531310745406
| 23> C          -3.85303233632332      0.64184728390947     -0.08922899701963
| 24> C          -2.76160264019232      1.37149847988341     -0.55944574759612
| 25> C          -1.47660109339583      0.83661893600173     -0.53774129143291
| 26> C          -1.25440681594945     -0.45059005524099     -0.02098393310126
| 27> N          -0.00000421351286     -1.04691099052655     -0.00000634656969
| 28> C           1.25440223898594     -0.45059921009457      0.02097107702327
| 29> C           1.47660100518815      0.83661344736755      0.53772022597142
| 30> C           2.76160709047823      1.37148092391060      0.55943972704073
| 31> C           3.85303807972459      0.64181530245744      0.08924769050056
| 32> C           3.63998848210222     -0.64498151368667     -0.40528711196994
| 33> C           2.35855298180034     -1.18301040091692     -0.44745622777963
| 34> H           2.19908895406864     -2.18668027905193     -0.85522438065874
| 35> H           4.48199840421952     -1.23797876876707     -0.77528111411611
| 36> H           4.85916686280388      1.06886680223861      0.11285453118115
| 37> H           2.91087680856629      2.37556477081901      0.96852154939093
| 38> H           0.64246040679070      1.40934002015136      0.94801182020360
| 39> H          -0.00000725820461     -2.05910419744794     -0.00000990999799
| 40> H          -0.64246082169541      1.40933334107559     -0.94805093043179
| 41> H          -2.91086965745103      2.37558015369041     -0.96853357662371
| 42> H          -4.85915726714274      1.06890811498503     -0.11281791601209
| 43> H          -4.48199557743319     -1.23793238163885      0.77532568830103
| 44> H          -2.19909265599709     -2.18665445212673      0.85523908131503
| 45> *
| 46>
| 47>                          ****END OF INPUT****

CARTESIAN COORDINATES (ANGSTROEM)
---------------------------------
  C     -2.358556   -1.182987    0.447465
  C     -3.639986   -0.644947    0.405313
  C     -3.853032    0.641847   -0.089229
  C     -2.761603    1.371498   -0.559446
  C     -1.476601    0.836619   -0.537741
  C     -1.254407   -0.450590   -0.020984
  N     -0.000004   -1.046911   -0.000006
  C      1.254402   -0.450599    0.020971
  C      1.476601    0.836613    0.537720
  C      2.761607    1.371481    0.559440
  C      3.853038    0.641815    0.089248
  C      3.639988   -0.644982   -0.405287
  C      2.358553   -1.183010   -0.447456
  H      2.199089   -2.186680   -0.855224
  H      4.481998   -1.237979   -0.775281
  H      4.859167    1.068867    0.112855
  H      2.910877    2.375565    0.968522
  H      0.642460    1.409340    0.948012
  H     -0.000007   -2.059104   -0.000010
  H     -0.642461    1.409333   -0.948051
  H     -2.910870    2.375580   -0.968534
  H     -4.859157    1.068908   -0.112818
  H     -4.481996   -1.237932    0.775326
  H     -2.199093   -2.186654    0.855239

 Total Charge           Charge          ....    0
 Multiplicity           Mult            ....    1
 Number of Electrons    NEL             ....   90
 Basis Dimension        Dim             ....  851

ORBITAL ENERGIES
----------------

  NO   OCC          E(Eh)            E(eV)
   0   2.0000     -14.411434      -392.1550
   1   2.0000     -10.276795      -279.6458
   2   2.0000     -10.276791      -279.6457
   3   2.0000     -10.231082      -278.4019
   4   2.0000     -10.231079      -278.4018
   5   2.0000     -10.231026      -278.4004
   6   2.0000     -10.231025      -278.4003
   7   2.0000     -10.227438      -278.3027
   8   2.0000     -10.227431      -278.3025
   9   2.0000     -10.227039      -278.2919
  10   2.0000     -10.227033      -278.2917
  11   2.0000     -10.222710      -278.1741
  12   2.0000     -10.222706      -278.1740
  13   2.0000      -0.983559       -26.7640
  14   2.0000      -0.885255       -24.0890
  15   2.0000      -0.864515       -23.5246
  16   2.0000      -0.783293       -21.3145
  17   2.0000      -0.772674       -21.0255
  18   2.0000      -0.766788       -20.8654
  19   2.0000      -0.736677       -20.0460
  20   2.0000      -0.643994       -17.5240
  21   2.0000      -0.642189       -17.4748
  22   2.0000      -0.616973       -16.7887
  23   2.0000      -0.598560       -16.2876
  24   2.0000      -0.550137       -14.9700
  25   2.0000      -0.540757       -14.7148
  26   2.0000      -0.509863       -13.8741
  27   2.0000      -0.489409       -13.3175
  28   2.0000      -0.467853       -12.7309
  29   2.0000      -0.458989       -12.4897
  30   2.0000      -0.443617       -12.0714
  31   2.0000      -0.439918       -11.9708
  32   2.0000      -0.430457       -11.7133
  33   2.0000      -0.429330       -11.6827
  34   2.0000      -0.411749       -11.2043
  35   2.0000      -0.388065       -10.5598
  36   2.0000      -0.376371       -10.2416
  37   2.0000      -0.364392        -9.9156
  38   2.0000      -0.353871        -9.6293
  39   2.0000      -0.350560        -9.5392
  40   2.0000      -0.335689        -9.1346
  41   2.0000      -0.271899        -7.3988
  42   2.0000      -0.270911        -7.3719
  43   2.0000      -0.268833        -7.3153
  44   2.0000      -0.206721        -5.6252
  45   0.0000      -0.019495        -0.5305
  46   0.0000      -0.013940        -0.3793
  47   0.0000      -0.009670        -0.2631
  48   0.0000       0.000903         0.0246
  49   0.0000       0.010008         0.2723

MULLIKEN ATOMIC CHARGES
-----------------------
   0 C :   -0.935980
   1 C :   -0.532586
   2 C :   -0.516779
   3 C :   -0.973611
   4 C :   -0.584900
   5 C :    0.990708
   6 N :   -0.532696
   7 C :    0.983011
   8 C :   -0.585215
   9 C :   -0.979762
  10 C :   -0.524618
  11 C :   -0.535023
  12 C :   -0.921022
  13 H :    0.512548
  14 H :    0.513950
  15 H :    0.618046
  16 H :    0.478354
  17 H :    0.739303
  18 H :   -0.067841
  19 H :    0.739960
  20 H :    0.474071
  21 H :    0.619432
  22 H :    0.504072
  23 H :    0.516579
Sum of atomic charges:   -0.0000000

LOEWDIN ATOMIC CHARGES
----------------------
   0 C :    0.211412
   1 C :    0.169889
   2 C :    0.168600
   3 C :    0.175285
   4 C :    0.201114
   5 C :   -0.225874
   6 N :    0.563863
   7 C :   -0.225893
   8 C :    0.201113
   9 C :    0.175277
  10 C :    0.168611
  11 C :    0.169890
  12 C :    0.211405
  13 H :   -0.160240
  14 H :   -0.168347
  15 H :   -0.176896
  16 H :   -0.167549
  17 H :   -0.179162
  18 H :   -0.260277
  19 H :   -0.179177
  20 H :   -0.167549
  21 H :   -0.176903
  22 H :   -0.168350
  23 H :   -0.160240

  Mayer bond orders larger than 0.100000
B(  0-C ,  1-C ) :   1.3976 B(  0-C ,  2-C ) :   0.1115 B(  0-C ,  5-C ) :   0.5368
B(  0-C ,  7-C ) :   0.1116 B(  0-C , 14-H ) :  -0.1650 B(  0-C , 15-H ) :   0.1353
B(  0-C , 23-H ) :   0.4307 B(  1-C ,  2-C ) :   1.2670 B(  1-C ,  5-C ) :  -0.2222
B(  1-C , 22-H ) :   0.5819 B(  2-C ,  3-C ) :   1.4190 B(  2-C ,  4-C ) :   0.1327
B(  2-C , 15-H ) :  -0.1481 B(  2-C , 21-H ) :   0.3949 B(  3-C ,  4-C ) :   1.4166
B(  3-C ,  5-C ) :  -0.2872 B(  3-C , 20-H ) :   0.6332 B(  4-C ,  5-C ) :   0.7549
B(  4-C ,  6-N ) :  -0.1843 B(  4-C ,  7-C ) :   0.1170 B(  4-C , 17-H ) :  -0.1305
B(  4-C , 19-H ) :   0.1928 B(  5-C ,  6-N ) :   0.7088 B(  5-C ,  8-C ) :   0.1382
B(  5-C , 17-H ) :  -0.1004 B(  6-N ,  7-C ) :   0.7109 B(  6-N ,  8-C ) :  -0.1803
B(  6-N , 18-H ) :   1.3638 B(  7-C ,  8-C ) :   0.7618 B(  7-C ,  9-C ) :  -0.2829
B(  7-C , 11-C ) :  -0.2116 B(  7-C , 12-C ) :   0.5407 B(  7-C , 18-H ) :  -0.1019
B(  7-C , 19-H ) :  -0.1080 B(  8-C ,  9-C ) :   1.4143 B(  8-C , 10-C ) :   0.1290
B(  8-C , 17-H ) :   0.1949 B(  8-C , 19-H ) :  -0.1262 B(  9-C , 10-C ) :   1.4354
B(  9-C , 16-H ) :   0.6271 B( 10-C , 11-C ) :   1.2632 B( 10-C , 12-C ) :   0.1003
B( 10-C , 15-H ) :   0.3966 B( 11-C , 12-C ) :   1.3819 B( 11-C , 14-H ) :   0.5630
B( 12-C , 13-H ) :   0.4434 B( 14-H , 22-H ) :   0.1138

Dispersion correction           -0.024902063
FINAL SINGLE POINT ENERGY      -518.253669391253

DIPOLE MOMENT
-------------

Method             : SCF
Type of density    : Electron Density
Multiplicity       :   1
Irrep              :   0
Energy             :  -518.2287673281712159 Eh
Relativity type    :
Basis              : AO
                                X                 Y                 Z
Electronic contribution:      0.000019349      -1.321697801       0.000552582
Nuclear contribution   :      0.000006870       0.752166841       0.000025965
                        -----------------------------------------
Total Dipole Moment    :      0.000026219      -0.569530960       0.000578547
                        -----------------------------------------
Magnitude (a.u.)       :      0.569531254
Magnitude (Debye)      :      1.447633402

Rotational constants in cm-1:             0.084180             0.013733             0.012322
Rotational constants in MHz :          2523.650354           411.709672           369.402071

                             ****ORCA TERMINATED NORMALLY****
TOTAL RUN TIME: 0 days 0 hours 10 minutes 10 seconds 77 msec
