                         Program Version 6.0.0  -   RELEASE  -
|  1> !PBE0 freq aug-cc-pVTZ d3 TightSCF SlowConv RIJCOSX defgrid2
|  2>
|  3> %pal
|  4> nprocs 12
|  5> end
|  6>
|  7> %scf
|  8> MaxIter 1500
|  9> end
| 10>
| 11> %maxcore 5000
| 12>
| 13> !CPCM
| 14> %cpcm smd true
| 15> SMDsolvent "MeCN"
| 16> surfacetype gepol_ses
| 17> rsolv 2.19
| 18> end
| 19>
| 20> * xyz 0 1
| 21>   C           0.69116791963965     -1.22042767064201     -0.00218105472825
| 22>   C          -0.68866568897814     -1.21688728471247     -0.00194633458341
| 23>   C          -1.34287926165816      0.00477422224888     -0.00013115743601
| 24>   C          -0.66558781829305      1.21086375011271      0.00162648400669
| 25>   C           0.71747622510628      1.18921953314815      0.00094449061788
| 26>   C           1.40387486950527     -0.02266106612515     -0.00084432154100
| 27>   C           2.90016220334060     -0.08016864286002     -0.00137110335697
| 28>   O           3.46365077376405     -1.15606150738408      0.00121245230845
| 29>   C           3.66115316174156      1.20607323736961     -0.00478502013015
| 30>   H           3.40774890424926      1.80253891691499      0.87503857697039
| 31>   H           4.72845697533663      0.99723211199013     -0.00807602369251
| 32>   H           3.40192829740969      1.80158312191887     -0.88341307402395
| 33>   H           1.25496038766338      2.12739236076847      0.00131333484467
| 34>   H          -1.21061803163674      2.14333761474563      0.00385627971216
| 35>   N          -2.80501337983721      0.01951018767213      0.00073108876557
| 36>   O          -3.36347608071853      1.09856740268262      0.00268786252944
| 37>   O          -3.38428462770266     -1.04852709807253     -0.00024014261271
| 38>   H          -1.25316830817055     -2.13779388284060     -0.00275089386903
| 39>   H           1.23405537923867     -2.15595180693531     -0.00370614378123
| 40> *
| 41>
| 42>                          ****END OF INPUT****

CARTESIAN COORDINATES (ANGSTROEM)
---------------------------------
  C      0.691168   -1.220428   -0.002181
  C     -0.688666   -1.216887   -0.001946
  C     -1.342879    0.004774   -0.000131
  C     -0.665588    1.210864    0.001626
  C      0.717476    1.189220    0.000944
  C      1.403875   -0.022661   -0.000844
  C      2.900162   -0.080169   -0.001371
  O      3.463651   -1.156062    0.001212
  C      3.661153    1.206073   -0.004785
  H      3.407749    1.802539    0.875039
  H      4.728457    0.997232   -0.008076
  H      3.401928    1.801583   -0.883413
  H      1.254960    2.127392    0.001313
  H     -1.210618    2.143338    0.003856
  N     -2.805013    0.019510    0.000731
  O     -3.363476    1.098567    0.002688
  O     -3.384285   -1.048527   -0.000240
  H     -1.253168   -2.137794   -0.002751
  H      1.234055   -2.155952   -0.003706

 Total Charge           Charge          ....    0
 Multiplicity           Mult            ....    1
 Number of Electrons    NEL             ....   86
 Basis Dimension        Dim             ....  713

ORBITAL ENERGIES
----------------

  NO   OCC          E(Eh)            E(eV)
   0   2.0000     -19.254011      -523.9283
   1   2.0000     -19.253946      -523.9265
   2   2.0000     -19.206931      -522.6472
   3   2.0000     -14.637026      -398.2937
   4   2.0000     -10.324395      -280.9411
   5   2.0000     -10.297918      -280.2206
   6   2.0000     -10.258832      -279.1570
   7   2.0000     -10.256226      -279.0861
   8   2.0000     -10.255528      -279.0671
   9   2.0000     -10.252670      -278.9893
  10   2.0000     -10.249620      -278.9063
  11   2.0000     -10.218940      -278.0715
  12   2.0000      -1.284637       -34.9568
  13   2.0000      -1.104163       -30.0458
  14   2.0000      -1.083574       -29.4855
  15   2.0000      -0.926219       -25.2037
  16   2.0000      -0.847903       -23.0726
  17   2.0000      -0.800838       -21.7919
  18   2.0000      -0.776231       -21.1223
  19   2.0000      -0.731285       -19.8993
  20   2.0000      -0.653196       -17.7744
  21   2.0000      -0.635277       -17.2868
  22   2.0000      -0.593045       -16.1376
  23   2.0000      -0.581109       -15.8128
  24   2.0000      -0.571975       -15.5642
  25   2.0000      -0.550746       -14.9866
  26   2.0000      -0.511090       -13.9075
  27   2.0000      -0.500221       -13.6117
  28   2.0000      -0.477356       -12.9895
  29   2.0000      -0.464245       -12.6327
  30   2.0000      -0.459243       -12.4966
  31   2.0000      -0.446060       -12.1379
  32   2.0000      -0.432074       -11.7573
  33   2.0000      -0.410682       -11.1752
  34   2.0000      -0.395155       -10.7527
  35   2.0000      -0.378872       -10.3096
  36   2.0000      -0.375555       -10.2194
  37   2.0000      -0.344843        -9.3837
  38   2.0000      -0.341813        -9.3012
  39   2.0000      -0.324763        -8.8372
  40   2.0000      -0.297760        -8.1025
  41   2.0000      -0.291938        -7.9440
  42   2.0000      -0.278613        -7.5814
  43   0.0000      -0.105795        -2.8788
  44   0.0000      -0.043718        -1.1896
  45   0.0000      -0.027823        -0.7571
  46   0.0000       0.000413         0.0112
  47   0.0000       0.013583         0.3696

MULLIKEN ATOMIC CHARGES
-----------------------
   0 C :   -0.894241
   1 C :   -0.513640
   2 C :    0.385905
   3 C :   -0.769284
   4 C :   -0.469651
   5 C :    0.930778
   6 C :    0.714771
   7 O :   -0.910625
   8 C :   -0.643709
   9 H :    0.305330
  10 H :    0.205996
  11 H :    0.304753
  12 H :    0.324756
  13 H :    0.607407
  14 N :    0.796651
  15 O :   -0.684234
  16 O :   -0.686240
  17 H :    0.687376
  18 H :    0.307902
Sum of atomic charges:   -0.0000000

LOEWDIN ATOMIC CHARGES
----------------------
   0 C :    0.221366
   1 C :    0.223787
   2 C :   -0.230289
   3 C :    0.229134
   4 C :    0.235120
   5 C :   -0.109909
   6 C :   -0.534013
   7 O :    0.500067
   8 C :    0.579052
   9 H :   -0.157264
  10 H :   -0.173589
  11 H :   -0.157471
  12 H :   -0.171320
  13 H :   -0.183262
  14 N :   -0.745570
  15 O :    0.418645
  16 O :    0.418928
  17 H :   -0.184679
  18 H :   -0.178735

  Mayer bond orders larger than 0.100000
B(  0-C ,  1-C ) :   1.4733 B(  0-C ,  2-C ) :  -0.3635 B(  0-C ,  4-C ) :  -0.3153
B(  0-C ,  5-C ) :   0.5687 B(  0-C ,  6-C ) :   0.1759 B(  0-C , 18-H ) :   0.8556
B(  1-C ,  2-C ) :   1.1124 B(  1-C ,  3-C ) :   0.1324 B(  1-C ,  5-C ) :   0.1226
B(  1-C ,  7-O ) :  -0.1048 B(  1-C , 14-N ) :  -0.1259 B(  1-C , 17-H ) :   0.2003
B(  2-C ,  3-C ) :   0.9835 B(  2-C ,  4-C ) :  -0.2718 B(  2-C , 14-N ) :   1.1779
B(  2-C , 15-O ) :   0.3979 B(  2-C , 16-O ) :   0.4032 B(  3-C ,  4-C ) :   1.1315
B(  3-C ,  5-C ) :   0.1919 B(  3-C , 13-H ) :   0.3110 B(  3-C , 14-N ) :  -0.1894
B(  4-C ,  5-C ) :   0.7121 B(  4-C , 12-H ) :   0.9090 B(  5-C ,  6-C ) :   0.4086
B(  5-C ,  7-O ) :   0.2220 B(  6-C ,  7-O ) :   0.8878 B(  6-C ,  8-C ) :   0.9644
B(  7-O , 18-H ) :   0.1594 B(  8-C ,  9-H ) :   0.9044 B(  8-C , 10-H ) :   0.9468
B(  8-C , 11-H ) :   0.9051 B( 14-N , 15-O ) :   0.8846 B( 14-N , 16-O ) :   0.8763
B( 15-O , 16-O ) :   0.1786

Dispersion correction           -0.018413847
FINAL SINGLE POINT ENERGY      -588.986735966443

DIPOLE MOMENT
-------------

Method             : SCF
Type of density    : Electron Density
Multiplicity       :   1
Irrep              :   0
Energy             :  -588.9683221199294394 Eh
Relativity type    :
Basis              : AO
                                X                 Y                 Z
Electronic contribution:     -9.357577066      -2.931837287       0.009854445
Nuclear contribution   :     10.783760477       4.276866724      -0.014442256
                        -----------------------------------------
Total Dipole Moment    :      1.426183411       1.345029437      -0.004587812
                        -----------------------------------------
Magnitude (a.u.)       :      1.960388828
Magnitude (Debye)      :      4.982912401

VIBRATIONAL FREQUENCIES
-----------------------

Scaling factor for frequencies =  1.000000000  (already applied!)

     0:       0.00 cm**-1
     1:       0.00 cm**-1
     2:       0.00 cm**-1
     3:       0.00 cm**-1
     4:       0.00 cm**-1
     5:       0.00 cm**-1
     6:     -20.73 cm**-1 ***imaginary mode***
     7:      29.15 cm**-1
     8:      73.40 cm**-1
     9:     146.07 cm**-1
    10:     158.50 cm**-1
    11:     238.11 cm**-1
    12:     261.89 cm**-1
    13:     294.01 cm**-1
    14:     411.58 cm**-1
    15:     433.45 cm**-1
    16:     448.60 cm**-1
    17:     514.47 cm**-1
    18:     540.84 cm**-1
    19:     591.01 cm**-1
    20:     621.46 cm**-1
    21:     627.70 cm**-1
    22:     714.55 cm**-1
    23:     764.34 cm**-1
    24:     784.05 cm**-1
    25:     846.82 cm**-1
    26:     886.81 cm**-1
    27:     887.14 cm**-1
    28:     969.72 cm**-1
    29:     999.37 cm**-1
    30:    1013.93 cm**-1
    31:    1019.97 cm**-1
    32:    1039.12 cm**-1
    33:    1098.04 cm**-1
    34:    1115.69 cm**-1
    35:    1132.70 cm**-1
    36:    1183.12 cm**-1
    37:    1280.33 cm**-1
    38:    1304.06 cm**-1
    39:    1368.16 cm**-1
    40:    1386.05 cm**-1
    41:    1418.91 cm**-1
    42:    1433.37 cm**-1
    43:    1439.28 cm**-1
    44:    1441.93 cm**-1
    45:    1521.82 cm**-1
    46:    1611.05 cm**-1
    47:    1659.24 cm**-1
    48:    1668.05 cm**-1
    49:    1763.68 cm**-1
    50:    3053.71 cm**-1
    51:    3120.90 cm**-1
    52:    3168.34 cm**-1
    53:    3219.73 cm**-1
    54:    3220.75 cm**-1
    55:    3242.45 cm**-1
    56:    3243.32 cm**-1

IR SPECTRUM
-----------

 Mode   freq       eps      Int      T**2         TX        TY        TZ
       cm**-1   L/(mol*cm) km/mol    a.u.
----------------------------------------------------------------------------
  7:     29.15   0.000546    2.76  0.005841  ( 0.001387  0.000697 -0.076409)
  8:     73.40   0.001326    6.70  0.005638  ( 0.000166  0.000289  0.075088)
  9:    146.07   0.000038    0.19  0.000081  ( 0.001516  0.000709  0.008838)
 10:    158.50   0.001775    8.97  0.003495  (-0.045881 -0.037287 -0.000113)
 11:    238.11   0.000211    1.07  0.000276  ( 0.000564 -0.000311  0.016612)
 12:    261.89   0.001078    5.45  0.001285  ( 0.030454 -0.018898 -0.000093)
 13:    294.01   0.000066    0.33  0.000070  (-0.002110  0.008078 -0.000056)
 14:    411.58   0.000002    0.01  0.000002  (-0.000099  0.001241 -0.000549)
 15:    433.45   0.000856    4.33  0.000617  ( 0.013028  0.021106 -0.001146)
 16:    448.60   0.000828    4.18  0.000576  ( 0.000092 -0.000838 -0.023986)
 17:    514.47   0.004143   20.94  0.002513  ( 0.049966  0.004045 -0.000364)
 18:    540.84   0.000987    4.99  0.000569  ( 0.019447  0.013826 -0.000180)
 19:    591.01   0.003516   17.77  0.001856  (-0.000263  0.000172  0.043083)
 20:    621.46   0.000654    3.30  0.000328  (-0.017597 -0.004313 -0.000068)
 21:    627.70   0.003971   20.07  0.001974  ( 0.039259  0.020803 -0.000275)
 22:    714.55   0.005512   27.85  0.002407  (-0.000050  0.000068 -0.049062)
 23:    764.34   0.005991   30.28  0.002446  (-0.049418 -0.001976 -0.000294)
 24:    784.05   0.011165   56.42  0.004444  (-0.000449 -0.000144  0.066661)
 25:    846.82   0.000090    0.46  0.000033  ( 0.000151 -0.000100 -0.005770)
 26:    886.81   0.010294   52.02  0.003623  (-0.015911 -0.000042 -0.058046)
 27:    887.14   0.013135   66.38  0.004621  ( 0.066411  0.001483 -0.014421)
 28:    969.72   0.008331   42.10  0.002681  (-0.045246 -0.025173 -0.000342)
 29:    999.37   0.000013    0.07  0.000004  ( 0.001102  0.000065  0.001720)
 30:   1013.93   0.000062    0.32  0.000019  ( 0.000460  0.001156  0.004203)
 31:   1019.97   0.003683   18.61  0.001127  ( 0.033455  0.002738 -0.000294)
 32:   1039.12   0.000639    3.23  0.000192  ( 0.000260  0.000258  0.013850)
 33:   1098.04   0.000419    2.12  0.000119  (-0.007625 -0.007801  0.000182)
 34:   1115.69   0.003929   19.86  0.001099  (-0.001923 -0.033095  0.000130)
 35:   1132.70   0.014168   71.60  0.003903  ( 0.062422  0.002614 -0.000034)
 36:   1183.12   0.006537   33.03  0.001724  ( 0.041261  0.004660  0.000037)
 37:   1280.33   0.064608  326.50  0.015747  ( 0.125063  0.010322 -0.000006)
 38:   1304.06   0.002418   12.22  0.000579  (-0.023989  0.001796  0.000030)
 39:   1368.16   0.035900  181.42  0.008188  ( 0.068431  0.059207 -0.000387)
 40:   1386.05   0.016637   84.08  0.003746  ( 0.023206 -0.056632 -0.000096)
 41:   1418.91   0.106437  537.89  0.023409  (-0.152983  0.002232 -0.000056)
 42:   1433.37   0.007298   36.88  0.001589  ( 0.027922 -0.028434 -0.000923)
 43:   1439.28   0.003630   18.34  0.000787  ( 0.001436 -0.000057  0.028017)
 44:   1441.93   0.002886   14.59  0.000625  ( 0.023257  0.009122 -0.000760)
 45:   1521.82   0.000502    2.54  0.000103  (-0.009056 -0.004576  0.000059)
 46:   1611.05   0.085475  431.96  0.016557  ( 0.011610  0.128148  0.000190)
 47:   1659.24   0.000857    4.33  0.000161  ( 0.010625 -0.006950 -0.000025)
 48:   1668.05   0.028334  143.19  0.005301  (-0.014758  0.071295  0.000050)
 49:   1763.68   0.075922  383.68  0.013434  (-0.068970  0.093149 -0.000264)
 50:   3053.71   0.000152    0.77  0.000016  ( 0.003871  0.000736 -0.000080)
 51:   3120.90   0.000375    1.89  0.000037  (-0.000008  0.000173 -0.006118)
 52:   3168.34   0.003279   16.57  0.000323  ( 0.017965  0.000492  0.000045)
 53:   3219.73   0.000539    2.73  0.000052  ( 0.006804  0.002440 -0.000147)
 54:   3220.75   0.000239    1.21  0.000023  (-0.001252 -0.004644 -0.000135)
 55:   3242.45   0.000382    1.93  0.000037  ( 0.002979  0.005277 -0.000061)
 56:   3243.32   0.000622    3.14  0.000060  (-0.006296  0.004493  0.000112)

--------------------------
THERMOCHEMISTRY AT 298.15K
--------------------------

Temperature         ...   298.15 K
Pressure            ...     1.00 atm
Total Mass          ...   165.15 AMU
Quasi RRHO          ...     True
Cut-Off Frequency   ...     1.00 cm^-1

Throughout the following assumptions are being made:
  (1) The electronic state is orbitally nondegenerate
  (2) There are no thermally accessible electronically excited states
  (3) Hindered rotations indicated by low frequency modes are not
      treated as such but are treated as vibrations and this may
      cause some error
  (4) All equations used are the standard statistical mechanics
      equations for an ideal gas
  (5) All vibrations are strictly harmonic

freq.      29.15  E(vib)   ...       0.55
freq.      73.40  E(vib)   ...       0.49
freq.     146.07  E(vib)   ...       0.41
freq.     158.50  E(vib)   ...       0.39
freq.     238.11  E(vib)   ...       0.32
freq.     261.89  E(vib)   ...       0.29
freq.     294.01  E(vib)   ...       0.27
freq.     411.58  E(vib)   ...       0.19
freq.     433.45  E(vib)   ...       0.17
freq.     448.60  E(vib)   ...       0.17
freq.     514.47  E(vib)   ...       0.13
freq.     540.84  E(vib)   ...       0.12
freq.     591.01  E(vib)   ...       0.10
freq.     621.46  E(vib)   ...       0.09
freq.     627.70  E(vib)   ...       0.09
freq.     714.55  E(vib)   ...       0.07
freq.     764.34  E(vib)   ...       0.06
freq.     784.05  E(vib)   ...       0.05
freq.     846.82  E(vib)   ...       0.04
freq.     886.81  E(vib)   ...       0.04
freq.     887.14  E(vib)   ...       0.04
freq.     969.72  E(vib)   ...       0.03
freq.     999.37  E(vib)   ...       0.02
freq.    1013.93  E(vib)   ...       0.02
freq.    1019.97  E(vib)   ...       0.02
freq.    1039.12  E(vib)   ...       0.02
freq.    1098.04  E(vib)   ...       0.02
freq.    1115.69  E(vib)   ...       0.01
freq.    1132.70  E(vib)   ...       0.01
freq.    1183.12  E(vib)   ...       0.01
freq.    1280.33  E(vib)   ...       0.01
freq.    1304.06  E(vib)   ...       0.01
freq.    1368.16  E(vib)   ...       0.01
freq.    1386.05  E(vib)   ...       0.00
freq.    1418.91  E(vib)   ...       0.00
freq.    1433.37  E(vib)   ...       0.00
freq.    1439.28  E(vib)   ...       0.00
freq.    1441.93  E(vib)   ...       0.00
freq.    1521.82  E(vib)   ...       0.00
freq.    1611.05  E(vib)   ...       0.00
freq.    1659.24  E(vib)   ...       0.00
freq.    1668.05  E(vib)   ...       0.00
freq.    1763.68  E(vib)   ...       0.00
freq.    3053.71  E(vib)   ...       0.00
freq.    3120.90  E(vib)   ...       0.00
freq.    3168.34  E(vib)   ...       0.00
freq.    3219.73  E(vib)   ...       0.00
freq.    3220.75  E(vib)   ...       0.00
freq.    3242.45  E(vib)   ...       0.00
freq.    3243.32  E(vib)   ...       0.00

------------
INNER ENERGY
------------

The inner energy is: U= E(el) + E(ZPE) + E(vib) + E(rot) + E(trans)
    E(el)   - is the total energy from the electronic structure calculation
              = E(kin-el) + E(nuc-el) + E(el-el) + E(nuc-nuc)
    E(ZPE)  - the the zero temperature vibrational energy from the frequency calculation
    E(vib)  - the the finite temperature correction to E(ZPE) due to population
              of excited vibrational states
    E(rot)  - is the rotational thermal energy
    E(trans)- is the translational thermal energy

Summary of contributions to the inner energy U:
Electronic energy                ...   -588.98673597 Eh
Zero point energy                ...      0.13990395 Eh      87.79 kcal/mol
Thermal vibrational correction   ...      0.00686175 Eh       4.31 kcal/mol
Thermal rotational correction    ...      0.00141627 Eh       0.89 kcal/mol
Thermal translational correction ...      0.00141627 Eh       0.89 kcal/mol
-----------------------------------------------------------------------
Total thermal energy                   -588.83713772 Eh

Summary of corrections to the electronic energy:
(perhaps to be used in another calculation)
Total thermal correction                  0.00969429 Eh       6.08 kcal/mol
Non-thermal (ZPE) correction              0.13990395 Eh      87.79 kcal/mol
-----------------------------------------------------------------------
Total correction                          0.14959825 Eh      93.87 kcal/mol

--------
ENTHALPY
--------

The enthalpy is H = U + kB*T
                kB is Boltzmann's constant
Total thermal energy              ...   -588.83713772 Eh
Thermal Enthalpy correction       ...      0.00094421 Eh       0.59 kcal/mol
-----------------------------------------------------------------------
Total Enthalpy                    ...   -588.83619351 Eh

Note: Only C1 symmetry has been detected, increase convergence thresholds
      if your molecule has a higher symmetry. Symmetry factor of 1.0 is
      used for the rotational entropy correction.

Note: Rotational entropy computed according to Herzberg
Infrared and Raman Spectra, Chapter V,1, Van Nostrand Reinhold, 1945
Point Group:  C1, Symmetry Number:   1
Rotational constants in cm-1:     0.097047     0.016050     0.013807

Vibrational entropy computed according to the QRRHO of S. Grimme
Chem.Eur.J. 2012 18 9955 using a reference frequency of 100.0 cm-1

-------
ENTROPY
-------

The entropy contributions are T*S = T*(S(el)+S(vib)+S(rot)+S(trans))
     S(el)   - electronic entropy
     S(vib)  - vibrational entropy
     S(rot)  - rotational entropy
     S(trans)- translational entropy
The entropies will be listed as multiplied by the temperature to get
units of energy

Electronic entropy                ...      0.00000000 Eh      0.00 kcal/mol
Vibrational entropy               ...      0.01175520 Eh      7.38 kcal/mol
Rotational entropy                ...      0.01458444 Eh      9.15 kcal/mol
Translational entropy             ...      0.01958175 Eh     12.29 kcal/mol
-----------------------------------------------------------------------
Final entropy term                ...      0.04592138 Eh     28.82 kcal/mol

In case the symmetry of your molecule has not been determined correctly
or in case you have a reason to use a different symmetry number we print
out the resulting rotational entropy values for sn=1,12:

 non-linear molecules -----------------------------------
|  sn= 1 | S(rot)=       0.01458444 Eh      9.15 kcal/mol|
|  sn= 2 | S(rot)=       0.01392999 Eh      8.74 kcal/mol|
|  sn= 3 | S(rot)=       0.01354715 Eh      8.50 kcal/mol|
|  sn= 4 | S(rot)=       0.01327553 Eh      8.33 kcal/mol|
|  sn= 5 | S(rot)=       0.01306484 Eh      8.20 kcal/mol|
|  sn= 6 | S(rot)=       0.01289270 Eh      8.09 kcal/mol|
|  sn= 7 | S(rot)=       0.01274715 Eh      8.00 kcal/mol|
|  sn= 8 | S(rot)=       0.01262107 Eh      7.92 kcal/mol|
|  sn= 9 | S(rot)=       0.01250987 Eh      7.85 kcal/mol|
|  sn=10 | S(rot)=       0.01241039 Eh      7.79 kcal/mol|

                             ****ORCA TERMINATED NORMALLY****
TOTAL RUN TIME: 0 days 0 hours 40 minutes 45 seconds 972 msec
