                         Program Version 6.0.0  -   RELEASE  -
|  1> !PBE0 def2-SV(p) Opt Freq d3 TightSCF SlowConv RIJCOSX defgrid2
|  2>
|  3> %pal
|  4> nprocs 4
|  5> end
|  6>
|  7> %scf
|  8> MaxIter 1500
|  9> end
| 10>
| 11> %maxcore 3000
| 12>
| 13>
| 14>
| 15> * xyz 0 1
| 16> C    -1.4709509   -1.2975335    0.1704645
| 17> C    -0.6029788   -0.0680712    0.3098932
| 18> C    -1.0938024    1.1471309    0.0565644
| 19> C    -2.5199844    1.4267614   -0.3203671
| 20> C    -3.2703263    0.1647385   -0.7309840
| 21> C    -2.9536667   -0.9478036    0.2593716
| 22> H    -3.1909243   -0.6103475    1.2701532
| 23> H    -3.5539666   -1.8348511    0.0461695
| 24> H    -2.9551493   -0.1430230   -1.7305885
| 25> H    -4.3441289    0.3610113   -0.7615661
| 26> H    -3.0274743    1.8903772    0.5350604
| 27> H    -2.5407779    2.1585626   -1.1339077
| 28> H    -0.4840867    2.0327414    0.1602664
| 29> N     0.6793631   -0.3228170    0.8111467
| 30> C     1.5647396    0.7780251    1.1370813
| 31> H     0.9963150    1.5978079    1.5735144
| 32> C     2.3544541    1.2519769   -0.0911525
| 33> H     3.0892241    2.0108706    0.1838277
| 34> H     1.6638939    1.6664883   -0.8413092
| 35> O     3.0874968    0.1847287   -0.6622785
| 36> C     2.2340364   -0.8894456   -1.0026402
| 37> H     1.5173394   -0.5646160   -1.7746262
| 38> C     1.4612845   -1.3976181    0.2236258
| 39> H     2.1786394   -1.7410612    0.9769146
| 40> H     0.8238089   -2.2308400   -0.0621103
| 41> H     2.8786959   -1.6696561   -1.4115277
| 42> H     2.2756204    0.4082362    1.8848289
| 43> H    -1.2829536   -1.7770915   -0.7959393
| 44> H    -1.2117438   -2.0082945    0.9577956
| 45> *
| 46>
| 47>                          ****END OF INPUT****
 Total Charge           Charge          ....    0
 Multiplicity           Mult            ....    1
 Number of Electrons    NEL             ....   92
Dispersion correction           -0.027972802
FINAL SINGLE POINT ENERGY      -520.252788287495
Dispersion correction             ... done (  0.1 sec)
Dispersion correction           -0.027859455
FINAL SINGLE POINT ENERGY      -520.255353172395
Dispersion correction             ... done (  0.1 sec)
Dispersion correction           -0.027818630
FINAL SINGLE POINT ENERGY      -520.255668186504
Dispersion correction             ... done (  0.1 sec)
FINAL SINGLE POINT ENERGY      -520.255779439383
Dispersion correction             ... done (  0.1 sec)
Dispersion correction           -0.027782796
FINAL SINGLE POINT ENERGY      -520.255796182040
Dispersion correction             ... done (  0.1 sec)
Dispersion correction           -0.027778102
FINAL SINGLE POINT ENERGY      -520.255801567834
Dispersion correction             ... done (  0.1 sec)
                    ***********************HURRAY********************

CARTESIAN COORDINATES (ANGSTROEM)
---------------------------------
  C     -1.452967   -1.281510    0.141945
  C     -0.603061   -0.044461    0.331933
  C     -1.125676    1.185728    0.126307
  C     -2.558376    1.447425   -0.240684
  C     -3.282453    0.195605   -0.720044
  C     -2.946277   -0.980328    0.184588
  H     -3.242136   -0.739321    1.222997
  H     -3.514498   -1.880620   -0.107809
  H     -2.966730   -0.042680   -1.753663
  H     -4.372266    0.369517   -0.752140
  H     -3.099083    1.874228    0.630304
  H     -2.603227    2.230698   -1.020253
  H     -0.499947    2.073535    0.254247
  N      0.693035   -0.284383    0.799584
  C      1.578187    0.824675    1.086449
  H      1.007395    1.666200    1.507064
  C      2.370281    1.232917   -0.150410
  H      3.110771    2.013225    0.091260
  H      1.684177    1.631301   -0.927255
  O      3.090364    0.135682   -0.657095
  C      2.255609   -0.950586   -0.963801
  H      1.551784   -0.677536   -1.780722
  C      1.459433   -1.394043    0.258512
  H      2.165108   -1.741987    1.036230
  H      0.803135   -2.239356    0.006747
  H      2.909494   -1.761306   -1.326341
  H      2.295025    0.491404    1.860655
  H     -1.209507   -1.761509   -0.826512
  H     -1.195599   -2.016125    0.925587

 Multiplicity           Mult            ....    1
 Number of Electrons    NEL             ....   92
 Basis Dimension        Dim             ....  202

ORBITAL ENERGIES
----------------

  NO   OCC          E(Eh)            E(eV)
   0   2.0000     -19.210113      -522.7338
   1   2.0000     -14.400969      -391.8703
   2   2.0000     -10.272090      -279.5178
   3   2.0000     -10.270613      -279.4776
   4   2.0000     -10.260795      -279.2104
   5   2.0000     -10.258221      -279.1404
   6   2.0000     -10.254725      -279.0452
   7   2.0000     -10.229979      -278.3719
   8   2.0000     -10.223855      -278.2052
   9   2.0000     -10.221408      -278.1387
  10   2.0000     -10.220234      -278.1067
  11   2.0000     -10.205854      -277.7154
  12   2.0000      -1.064559       -28.9681
  13   2.0000      -0.962690       -26.1961
  14   2.0000      -0.845421       -23.0051
  15   2.0000      -0.794191       -21.6110
  16   2.0000      -0.763541       -20.7770
  17   2.0000      -0.752564       -20.4783
  18   2.0000      -0.692822       -18.8527
  19   2.0000      -0.677914       -18.4470
  20   2.0000      -0.629406       -17.1270
  21   2.0000      -0.616400       -16.7731
  22   2.0000      -0.581808       -15.8318
  23   2.0000      -0.541813       -14.7435
  24   2.0000      -0.520483       -14.1631
  25   2.0000      -0.495862       -13.4931
  26   2.0000      -0.492169       -13.3926
  27   2.0000      -0.483356       -13.1528
  28   2.0000      -0.479268       -13.0415
  29   2.0000      -0.462562       -12.5869
  30   2.0000      -0.440547       -11.9879
  31   2.0000      -0.435501       -11.8506
  32   2.0000      -0.421923       -11.4811
  33   2.0000      -0.414927       -11.2907
  34   2.0000      -0.401726       -10.9315
  35   2.0000      -0.390146       -10.6164
  36   2.0000      -0.385904       -10.5010
  37   2.0000      -0.371455       -10.1078
  38   2.0000      -0.366699        -9.9784
  39   2.0000      -0.338612        -9.2141
  40   2.0000      -0.335474        -9.1287
  41   2.0000      -0.330557        -8.9949
  42   2.0000      -0.317873        -8.6498
  43   2.0000      -0.298149        -8.1130
  44   2.0000      -0.267262        -7.2726
  45   2.0000      -0.193416        -5.2631
  46   0.0000       0.038809         1.0561
  47   0.0000       0.066102         1.7987
  48   0.0000       0.082410         2.2425
  49   0.0000       0.086067         2.3420
  50   0.0000       0.092523         2.5177

MULLIKEN ATOMIC CHARGES
-----------------------
   0 C :   -0.223961
   1 C :    0.093679
   2 C :   -0.287487
   3 C :   -0.141821
   4 C :   -0.222178
   5 C :   -0.199161
   6 H :    0.115981
   7 H :    0.110856
   8 H :    0.109846
   9 H :    0.112581
  10 H :    0.111609
  11 H :    0.111154
  12 H :    0.082444
  13 N :   -0.342590
  14 C :   -0.123965
  15 H :    0.137099
  16 C :    0.002116
  17 H :    0.119481
  18 H :    0.103581
  19 O :   -0.395280
  20 C :    0.005946
  21 H :    0.096917
  22 C :   -0.120896
  23 H :    0.115423
  24 H :    0.136442
  25 H :    0.118253
  26 H :    0.116423
  27 H :    0.125358
  28 H :    0.132150
Sum of atomic charges:   -0.0000000

LOEWDIN ATOMIC CHARGES
----------------------
   0 C :   -0.226806
   1 C :   -0.010519
   2 C :   -0.233912
   3 C :   -0.221528
   4 C :   -0.228855
   5 C :   -0.223531
   6 H :    0.120677
   7 H :    0.117968
   8 H :    0.116850
   9 H :    0.118063
  10 H :    0.118726
  11 H :    0.120840
  12 H :    0.116796
  13 N :   -0.098887
  14 C :   -0.169789
  15 H :    0.127182
  16 C :   -0.119726
  17 H :    0.117723
  18 H :    0.104613
  19 O :   -0.193672
  20 C :   -0.120686
  21 H :    0.102404
  22 C :   -0.167956
  23 H :    0.118018
  24 H :    0.126218
  25 H :    0.117580
  26 H :    0.120129
  27 H :    0.124286
  28 H :    0.127792

  Mayer bond orders larger than 0.100000
B(  0-C ,  1-C ) :   1.0435 B(  0-C ,  5-C ) :   1.1063 B(  0-C , 27-H ) :   0.9004
B(  0-C , 28-H ) :   0.9088 B(  1-C ,  2-C ) :   1.8254 B(  1-C , 13-N ) :   1.0800
B(  2-C ,  3-C ) :   1.0368 B(  2-C , 12-H ) :   0.9190 B(  3-C ,  4-C ) :   1.1121
B(  3-C , 10-H ) :   0.9065 B(  3-C , 11-H ) :   0.9254 B(  4-C ,  5-C ) :   1.0817
B(  4-C ,  8-H ) :   0.9334 B(  4-C ,  9-H ) :   0.9304 B(  5-C ,  6-H ) :   0.9308
B(  5-C ,  7-H ) :   0.9307 B( 13-N , 14-C ) :   1.0153 B( 13-N , 22-C ) :   1.0029
B( 14-C , 15-H ) :   0.9095 B( 14-C , 16-C ) :   1.1016 B( 14-C , 26-H ) :   0.9123
B( 16-C , 17-H ) :   0.9344 B( 16-C , 18-H ) :   0.9111 B( 16-C , 19-O ) :   0.9843
B( 19-O , 20-C ) :   0.9953 B( 20-C , 21-H ) :   0.9091 B( 20-C , 22-C ) :   1.0952
B( 20-C , 25-H ) :   0.9325 B( 22-C , 23-H ) :   0.9142 B( 22-C , 24-H ) :   0.9109

Dispersion correction           -0.027775996
FINAL SINGLE POINT ENERGY      -520.255803293626

DIPOLE MOMENT
-------------

Method             : SCF
Type of density    : Electron Density
Multiplicity       :   1
Irrep              :   0
Energy             :  -520.2280272978887297 Eh
Relativity type    :
Basis              : AO
                                X                 Y                 Z
Electronic contribution:      6.474910257       0.308909509       0.964931303
Nuclear contribution   :     -6.702563356      -0.526145010      -0.941660721
                        -----------------------------------------
Total Dipole Moment    :     -0.227653099      -0.217235501       0.023270583
                        -----------------------------------------
Magnitude (a.u.)       :      0.315529264
Magnitude (Debye)      :      0.802011651

VIBRATIONAL FREQUENCIES
-----------------------

Scaling factor for frequencies =  1.000000000  (already applied!)

     0:       0.00 cm**-1
     1:       0.00 cm**-1
     2:       0.00 cm**-1
     3:       0.00 cm**-1
     4:       0.00 cm**-1
     5:       0.00 cm**-1
     6:      54.35 cm**-1
     7:      74.81 cm**-1
     8:     144.82 cm**-1
     9:     171.48 cm**-1
    10:     231.38 cm**-1
    11:     290.91 cm**-1
    12:     305.25 cm**-1
    13:     321.71 cm**-1
    14:     380.51 cm**-1
    15:     426.44 cm**-1
    16:     463.32 cm**-1
    17:     473.53 cm**-1
    18:     489.15 cm**-1
    19:     521.09 cm**-1
    20:     550.57 cm**-1
    21:     616.62 cm**-1
    22:     626.70 cm**-1
    23:     770.01 cm**-1
    24:     800.15 cm**-1
    25:     854.49 cm**-1
    26:     866.03 cm**-1
    27:     871.20 cm**-1
    28:     893.48 cm**-1
    29:     927.20 cm**-1
    30:     938.17 cm**-1
    31:     941.91 cm**-1
    32:     970.37 cm**-1
    33:    1000.64 cm**-1
    34:    1046.65 cm**-1
    35:    1067.20 cm**-1
    36:    1093.48 cm**-1
    37:    1100.80 cm**-1
    38:    1103.55 cm**-1
    39:    1119.43 cm**-1
    40:    1149.69 cm**-1
    41:    1162.72 cm**-1
    42:    1196.79 cm**-1
    43:    1211.89 cm**-1
    44:    1232.64 cm**-1
    45:    1242.15 cm**-1
    46:    1259.83 cm**-1
    47:    1277.20 cm**-1
    48:    1297.81 cm**-1
    49:    1305.15 cm**-1
    50:    1333.71 cm**-1
    51:    1337.90 cm**-1
    52:    1364.75 cm**-1
    53:    1381.72 cm**-1
    54:    1390.88 cm**-1
    55:    1397.98 cm**-1
    56:    1399.25 cm**-1
    57:    1399.92 cm**-1
    58:    1411.28 cm**-1
    59:    1431.61 cm**-1
    60:    1454.47 cm**-1
    61:    1460.40 cm**-1
    62:    1464.03 cm**-1
    63:    1472.28 cm**-1
    64:    1473.31 cm**-1
    65:    1476.04 cm**-1
    66:    1483.33 cm**-1
    67:    1489.03 cm**-1
    68:    1492.01 cm**-1
    69:    1738.00 cm**-1
    70:    2979.50 cm**-1
    71:    2992.16 cm**-1
    72:    3001.40 cm**-1
    73:    3017.41 cm**-1
    74:    3034.22 cm**-1
    75:    3039.07 cm**-1
    76:    3039.41 cm**-1
    77:    3043.92 cm**-1
    78:    3060.11 cm**-1
    79:    3084.44 cm**-1
    80:    3094.29 cm**-1
    81:    3099.51 cm**-1
    82:    3114.47 cm**-1
    83:    3118.90 cm**-1
    84:    3137.22 cm**-1
    85:    3153.87 cm**-1
    86:    3198.20 cm**-1

IR SPECTRUM
-----------

 Mode   freq       eps      Int      T**2         TX        TY        TZ
       cm**-1   L/(mol*cm) km/mol    a.u.
----------------------------------------------------------------------------
  6:     54.35   0.000029    0.15  0.000165  (-0.010136  0.007343 -0.002939)
  7:     74.81   0.000108    0.55  0.000450  (-0.015277  0.014700 -0.000825)
  8:    144.82   0.000046    0.23  0.000099  ( 0.001828 -0.007245  0.006587)
  9:    171.48   0.000104    0.53  0.000190  (-0.006773 -0.009075 -0.007870)
 10:    231.38   0.000423    2.14  0.000571  ( 0.002552 -0.002199 -0.023648)
 11:    290.91   0.000126    0.64  0.000135  ( 0.008250 -0.007732  0.002740)
 12:    305.25   0.002530   12.78  0.002586  (-0.012324  0.020156 -0.045033)
 13:    321.71   0.000123    0.62  0.000119  (-0.008318 -0.004632 -0.005309)
 14:    380.51   0.000492    2.48  0.000403  ( 0.012554 -0.012017  0.010060)
 15:    426.44   0.000016    0.08  0.000012  (-0.003260  0.000033 -0.000989)
 16:    463.32   0.000108    0.55  0.000073  (-0.006187 -0.002456 -0.005323)
 17:    473.53   0.000171    0.86  0.000112  (-0.001282 -0.003045  0.010077)
 18:    489.15   0.000589    2.97  0.000375  (-0.010884  0.012615  0.009894)
 19:    521.09   0.000122    0.62  0.000073  ( 0.001527 -0.006489 -0.005369)
 20:    550.57   0.001565    7.91  0.000887  ( 0.020008 -0.016951 -0.014131)
 21:    616.62   0.000145    0.74  0.000074  ( 0.005502  0.003101 -0.005808)
 22:    626.70   0.002600   13.14  0.001295  ( 0.003679  0.022147 -0.028118)
 23:    770.01   0.000120    0.61  0.000049  ( 0.005274  0.000914 -0.004479)
 24:    800.15   0.003787   19.14  0.001477  ( 0.015577  0.003485 -0.034961)
 25:    854.49   0.000821    4.15  0.000300  ( 0.000965 -0.000913  0.017268)
 26:    866.03   0.000198    1.00  0.000071  (-0.001922 -0.001811 -0.008012)
 27:    871.20   0.000073    0.37  0.000026  ( 0.004284 -0.002667  0.000840)
 28:    893.48   0.001368    6.91  0.000478  (-0.017056 -0.005358  0.012572)
 29:    927.20   0.000975    4.93  0.000328  (-0.007418 -0.015375 -0.006050)
 30:    938.17   0.000079    0.40  0.000026  (-0.000817  0.002685  0.004301)
 31:    941.91   0.003988   20.16  0.001321  ( 0.032536  0.006618 -0.014800)
 32:    970.37   0.000784    3.96  0.000252  (-0.001227 -0.013756  0.007834)
 33:   1000.64   0.005256   26.56  0.001639  ( 0.037926 -0.010778 -0.009203)
 34:   1046.65   0.000410    2.07  0.000122  ( 0.002689  0.005941 -0.008932)
 35:   1067.20   0.008748   44.21  0.002558  ( 0.041553 -0.018595  0.022037)
 36:   1093.48   0.000661    3.34  0.000189  ( 0.001040 -0.009549 -0.009814)
 37:   1100.80   0.000429    2.17  0.000122  (-0.001112 -0.010866 -0.001560)
 38:   1103.55   0.000617    3.12  0.000174  ( 0.005860 -0.011673  0.001960)
 39:   1119.43   0.000214    1.08  0.000060  (-0.007063  0.001428 -0.002766)
 40:   1149.69   0.000972    4.91  0.000264  (-0.016244 -0.000111  0.000259)
 41:   1162.72   0.000594    3.00  0.000159  ( 0.006288 -0.002923  0.010547)
 42:   1196.79   0.015600   78.83  0.004068  (-0.009797 -0.058518 -0.023393)
 43:   1211.89   0.000471    2.38  0.000121  ( 0.010850 -0.001029  0.001611)
 44:   1232.64   0.010131   51.20  0.002565  ( 0.047640 -0.017181 -0.000383)
 45:   1242.15   0.005320   26.88  0.001337  (-0.036196  0.005053 -0.000927)
 46:   1259.83   0.000445    2.25  0.000110  (-0.003230  0.009314  0.003623)
 47:   1277.20   0.000520    2.63  0.000127  ( 0.010267 -0.004457  0.001309)
 48:   1297.81   0.008832   44.63  0.002124  ( 0.002914 -0.042236 -0.018199)
 49:   1305.15   0.001998   10.10  0.000478  ( 0.007394  0.020271 -0.003480)
 50:   1333.71   0.002032   10.27  0.000475  ( 0.020694 -0.000940  0.006800)
 51:   1337.90   0.000918    4.64  0.000214  (-0.009644  0.010880 -0.001655)
 52:   1364.75   0.000799    4.04  0.000183  ( 0.000939 -0.012908 -0.003892)
 53:   1381.72   0.000255    1.29  0.000058  (-0.007168 -0.001073 -0.002238)
 54:   1390.88   0.002021   10.21  0.000453  ( 0.020859 -0.003871  0.001809)
 55:   1397.98   0.001604    8.10  0.000358  (-0.018080  0.005452 -0.001170)
 56:   1399.25   0.003831   19.36  0.000854  ( 0.002971 -0.027626 -0.009070)
 57:   1399.92   0.002421   12.24  0.000540  ( 0.015304  0.014881  0.009171)
 58:   1411.28   0.001137    5.75  0.000252  (-0.012738  0.009418  0.000744)
 59:   1431.61   0.000477    2.41  0.000104  ( 0.009711  0.000421 -0.003090)
 60:   1454.47   0.003347   16.92  0.000718  ( 0.026612  0.002708  0.001621)
 61:   1460.40   0.004153   20.99  0.000887  ( 0.023325 -0.018132 -0.003807)
 62:   1464.03   0.006183   31.25  0.001318  ( 0.035701  0.001199  0.006484)
 63:   1472.28   0.003034   15.33  0.000643  (-0.023510  0.008807  0.003580)
 64:   1473.31   0.001776    8.98  0.000376  ( 0.005174  0.006825 -0.017405)
 65:   1476.04   0.000617    3.12  0.000130  (-0.001782  0.005096  0.010066)
 66:   1483.33   0.008394   42.42  0.001766  ( 0.034163 -0.008705  0.022869)
 67:   1489.03   0.000621    3.14  0.000130  ( 0.009552  0.000547  0.006205)
 68:   1492.01   0.001866    9.43  0.000390  ( 0.017799  0.003649 -0.007756)
 69:   1738.00   0.021784  110.09  0.003911  (-0.051905  0.033322 -0.010343)
 70:   2979.50   0.007532   38.07  0.000789  (-0.010480 -0.009726 -0.024176)
 71:   2992.16   0.010962   55.40  0.001143  ( 0.022559 -0.023555 -0.008919)
 72:   3001.40   0.005558   28.09  0.000578  (-0.006088  0.018907 -0.013542)
 73:   3017.41   0.005141   25.98  0.000532  (-0.013359  0.017561  0.006700)
 74:   3034.22   0.004309   21.78  0.000443  ( 0.014648  0.007795  0.012958)
 75:   3039.07   0.004114   20.79  0.000422  (-0.015696 -0.006569 -0.011530)
 76:   3039.41   0.005098   25.76  0.000523  ( 0.009161  0.005547 -0.020217)
 77:   3043.92   0.014188   71.70  0.001455  (-0.022940  0.019406 -0.023488)
 78:   3060.11   0.007367   37.23  0.000751  (-0.007018  0.015748 -0.021308)
 79:   3084.44   0.003669   18.54  0.000371  (-0.000634  0.015536 -0.011376)
 80:   3094.29   0.008662   43.77  0.000874  ( 0.028349  0.007077  0.004449)
 81:   3099.51   0.007152   36.15  0.000720  ( 0.009559 -0.014557 -0.020417)
 82:   3114.47   0.008440   42.65  0.000846  ( 0.015685 -0.023575 -0.006627)
 83:   3118.90   0.007801   39.43  0.000781  (-0.022817 -0.013675 -0.008541)
 84:   3137.22   0.001940    9.80  0.000193  ( 0.007059 -0.011503 -0.003287)
 85:   3153.87   0.002723   13.76  0.000269  ( 0.006844  0.013174  0.007004)
 86:   3198.20   0.004518   22.83  0.000441  ( 0.017836  0.010343  0.003965)

--------------------------
THERMOCHEMISTRY AT 298.15K
--------------------------

Temperature         ...   298.15 K
Pressure            ...     1.00 atm
Total Mass          ...   167.25 AMU
Quasi RRHO          ...     True
Cut-Off Frequency   ...     1.00 cm^-1

Throughout the following assumptions are being made:
  (1) The electronic state is orbitally nondegenerate
  (2) There are no thermally accessible electronically excited states
  (3) Hindered rotations indicated by low frequency modes are not
      treated as such but are treated as vibrations and this may
      cause some error
  (4) All equations used are the standard statistical mechanics
      equations for an ideal gas
  (5) All vibrations are strictly harmonic

freq.      54.35  E(vib)   ...       0.52
freq.      74.81  E(vib)   ...       0.49
freq.     144.82  E(vib)   ...       0.41
freq.     171.48  E(vib)   ...       0.38
freq.     231.38  E(vib)   ...       0.32
freq.     290.91  E(vib)   ...       0.27
freq.     305.25  E(vib)   ...       0.26
freq.     321.71  E(vib)   ...       0.25
freq.     380.51  E(vib)   ...       0.21
freq.     426.44  E(vib)   ...       0.18
freq.     463.32  E(vib)   ...       0.16
freq.     473.53  E(vib)   ...       0.15
freq.     489.15  E(vib)   ...       0.15
freq.     521.09  E(vib)   ...       0.13
freq.     550.57  E(vib)   ...       0.12
freq.     616.62  E(vib)   ...       0.09
freq.     626.70  E(vib)   ...       0.09
freq.     770.01  E(vib)   ...       0.05
freq.     800.15  E(vib)   ...       0.05
freq.     854.49  E(vib)   ...       0.04
freq.     866.03  E(vib)   ...       0.04
freq.     871.20  E(vib)   ...       0.04
freq.     893.48  E(vib)   ...       0.03
freq.     927.20  E(vib)   ...       0.03
freq.     938.17  E(vib)   ...       0.03
freq.     941.91  E(vib)   ...       0.03
freq.     970.37  E(vib)   ...       0.03
freq.    1000.64  E(vib)   ...       0.02
freq.    1046.65  E(vib)   ...       0.02
freq.    1067.20  E(vib)   ...       0.02
freq.    1093.48  E(vib)   ...       0.02
freq.    1100.80  E(vib)   ...       0.02
freq.    1103.55  E(vib)   ...       0.02
freq.    1119.43  E(vib)   ...       0.01
freq.    1149.69  E(vib)   ...       0.01
freq.    1162.72  E(vib)   ...       0.01
freq.    1196.79  E(vib)   ...       0.01
freq.    1211.89  E(vib)   ...       0.01
freq.    1232.64  E(vib)   ...       0.01
freq.    1242.15  E(vib)   ...       0.01
freq.    1259.83  E(vib)   ...       0.01
freq.    1277.20  E(vib)   ...       0.01
freq.    1297.81  E(vib)   ...       0.01
freq.    1305.15  E(vib)   ...       0.01
freq.    1333.71  E(vib)   ...       0.01
freq.    1337.90  E(vib)   ...       0.01
freq.    1364.75  E(vib)   ...       0.01
freq.    1381.72  E(vib)   ...       0.01
freq.    1390.88  E(vib)   ...       0.00
freq.    1397.98  E(vib)   ...       0.00
freq.    1399.25  E(vib)   ...       0.00
freq.    1399.92  E(vib)   ...       0.00
freq.    1411.28  E(vib)   ...       0.00
freq.    1431.61  E(vib)   ...       0.00
freq.    1454.47  E(vib)   ...       0.00
freq.    1460.40  E(vib)   ...       0.00
freq.    1464.03  E(vib)   ...       0.00
freq.    1472.28  E(vib)   ...       0.00
freq.    1473.31  E(vib)   ...       0.00
freq.    1476.04  E(vib)   ...       0.00
freq.    1483.33  E(vib)   ...       0.00
freq.    1489.03  E(vib)   ...       0.00
freq.    1492.01  E(vib)   ...       0.00
freq.    1738.00  E(vib)   ...       0.00
freq.    2979.50  E(vib)   ...       0.00
freq.    2992.16  E(vib)   ...       0.00
freq.    3001.40  E(vib)   ...       0.00
freq.    3017.41  E(vib)   ...       0.00
freq.    3034.22  E(vib)   ...       0.00
freq.    3039.07  E(vib)   ...       0.00
freq.    3039.41  E(vib)   ...       0.00
freq.    3043.92  E(vib)   ...       0.00
freq.    3060.11  E(vib)   ...       0.00
freq.    3084.44  E(vib)   ...       0.00
freq.    3094.29  E(vib)   ...       0.00
freq.    3099.51  E(vib)   ...       0.00
freq.    3114.47  E(vib)   ...       0.00
freq.    3118.90  E(vib)   ...       0.00
freq.    3137.22  E(vib)   ...       0.00
freq.    3153.87  E(vib)   ...       0.00
freq.    3198.20  E(vib)   ...       0.00

------------
INNER ENERGY
------------

The inner energy is: U= E(el) + E(ZPE) + E(vib) + E(rot) + E(trans)
    E(el)   - is the total energy from the electronic structure calculation
              = E(kin-el) + E(nuc-el) + E(el-el) + E(nuc-nuc)
    E(ZPE)  - the the zero temperature vibrational energy from the frequency calculation
    E(vib)  - the the finite temperature correction to E(ZPE) due to population
              of excited vibrational states
    E(rot)  - is the rotational thermal energy
    E(trans)- is the translational thermal energy

Summary of contributions to the inner energy U:
Electronic energy                ...   -520.25580329 Eh
Zero point energy                ...      0.26404702 Eh     165.69 kcal/mol
Thermal vibrational correction   ...      0.00772331 Eh       4.85 kcal/mol
Thermal rotational correction    ...      0.00141627 Eh       0.89 kcal/mol
Thermal translational correction ...      0.00141627 Eh       0.89 kcal/mol
-----------------------------------------------------------------------
Total thermal energy                   -519.98120043 Eh

Summary of corrections to the electronic energy:
(perhaps to be used in another calculation)
Total thermal correction                  0.01055585 Eh       6.62 kcal/mol
Non-thermal (ZPE) correction              0.26404702 Eh     165.69 kcal/mol
-----------------------------------------------------------------------
Total correction                          0.27460287 Eh     172.32 kcal/mol

--------
ENTHALPY
--------

The enthalpy is H = U + kB*T
                kB is Boltzmann's constant
Total thermal energy              ...   -519.98120043 Eh
Thermal Enthalpy correction       ...      0.00094421 Eh       0.59 kcal/mol
-----------------------------------------------------------------------
Total Enthalpy                    ...   -519.98025622 Eh

Note: Only C1 symmetry has been detected, increase convergence thresholds
      if your molecule has a higher symmetry. Symmetry factor of 1.0 is
      used for the rotational entropy correction.

Note: Rotational entropy computed according to Herzberg
Infrared and Raman Spectra, Chapter V,1, Van Nostrand Reinhold, 1945
Point Group:  C1, Symmetry Number:   1
Rotational constants in cm-1:     0.066375     0.019173     0.017047

Vibrational entropy computed according to the QRRHO of S. Grimme
Chem.Eur.J. 2012 18 9955 using a reference frequency of 100.0 cm-1

-------
ENTROPY
-------

                             ****ORCA TERMINATED NORMALLY****
TOTAL RUN TIME: 0 days 0 hours 15 minutes 28 seconds 508 msec
