                         Program Version 6.0.0  -   RELEASE  -
|  1> !r2SCANh aug-cc-pVTZ d3 TightSCF SlowConv RIJCOSX defgrid2
|  2>
|  3> %pal
|  4> nprocs 4
|  5> end
|  6>
|  7> %scf
|  8> MaxIter 1500
|  9> end
| 10>
| 11> %maxcore 3000
| 12>
| 13> !CPCM
| 14> %cpcm smd true
| 15> SMDsolvent "MeCN"
| 16> surfacetype gepol_ses
| 17> rsolv 2.19
| 18> end
| 19>
| 20> * xyz 1 2
| 21> C           1.11125997383576     -1.29424514996325     -0.00265064680051
| 22> C           0.38198773558317      0.02008196306092     -0.00073603831801
| 23> C           1.09787452277410      1.23185818450004     -0.01840094347389
| 24> C           2.57516897563739      1.29944130725048     -0.05423021306044
| 25> C           3.25276060267681     -0.03006541948416     -0.36652594694293
| 26> C           2.57851945407381     -1.15958568043340      0.39766653752240
| 27> H           3.08673048588062     -2.11897794137244      0.21233290930891
| 28> H           2.64919644329653     -0.97201856058805      1.48490961905849
| 29> H           4.32300865456417      0.02994921608983     -0.11393141051059
| 30> H           3.19729504970193     -0.22847646380504     -1.45259326590540
| 31> H           2.88017444257326      2.09814619264511     -0.75665169289489
| 32> H           2.90436924042770      1.68065620438759      0.93876248720231
| 33> H           0.54894601237680      2.17778008647932      0.00559677216772
| 34> N          -0.94881866071091      0.02146974198586     -0.00750665676214
| 35> C          -1.80124595163478      1.22171206218783      0.02414035141441
| 36> C          -3.20201957398761      0.67299556712206      0.26488079247656
| 37> C          -3.16019989927783     -0.69168873479307     -0.41474108783946
| 38> C          -1.76503158912719     -1.19776594082048     -0.07505159311078
| 39> H          -1.34448546450201     -1.89626495900324     -0.81481906895254
| 40> H          -1.73682708705057     -1.69322252819275      0.91433806284159
| 41> H          -3.94379277720373     -1.38008145705625     -0.06506994380082
| 42> H          -3.26951180028075     -0.58721234569693     -1.50795872354530
| 43> H          -3.97836095131839      1.34028947438083     -0.13789958124651
| 44> H          -3.38451416042342      0.56256073325110      1.34753390290322
| 45> H          -1.45816127292513      1.91216175251807      0.80965132239800
| 46> H          -1.72037794411018      1.73381076618573     -0.95200027343459
| 47> H           0.59311740358867     -2.00524001309646      0.66292893429951
| 48> H           1.03641913556176     -1.72255585773926     -1.02261090499431
| 49> *
| 50>
| 51>                          ****END OF INPUT****

CARTESIAN COORDINATES (ANGSTROEM)
---------------------------------
  C      1.111260   -1.294245   -0.002651
  C      0.381988    0.020082   -0.000736
  C      1.097875    1.231858   -0.018401
  C      2.575169    1.299441   -0.054230
  C      3.252761   -0.030065   -0.366526
  C      2.578519   -1.159586    0.397667
  H      3.086730   -2.118978    0.212333
  H      2.649196   -0.972019    1.484910
  H      4.323009    0.029949   -0.113931
  H      3.197295   -0.228476   -1.452593
  H      2.880174    2.098146   -0.756652
  H      2.904369    1.680656    0.938762
  H      0.548946    2.177780    0.005597
  N     -0.948819    0.021470   -0.007507
  C     -1.801246    1.221712    0.024140
  C     -3.202020    0.672996    0.264881
  C     -3.160200   -0.691689   -0.414741
  C     -1.765032   -1.197766   -0.075052
  H     -1.344485   -1.896265   -0.814819
  H     -1.736827   -1.693223    0.914338
  H     -3.943793   -1.380081   -0.065070
  H     -3.269512   -0.587212   -1.507959
  H     -3.978361    1.340289   -0.137900
  H     -3.384514    0.562561    1.347534
  H     -1.458161    1.912162    0.809651
  H     -1.720378    1.733811   -0.952000
  H      0.593117   -2.005240    0.662929
  H      1.036419   -1.722556   -1.022611

 Total Charge           Charge          ....    1
 Multiplicity           Mult            ....    2
 Number of Electrons    NEL             ....   83
 Basis Dimension        Dim             ....  897

ORBITAL ENERGIES
----------------
                 SPIN UP ORBITALS
  NO   OCC          E(Eh)            E(eV)
   0   1.0000     -14.408368      -392.0716
   1   1.0000     -10.244516      -278.7675
   2   1.0000     -10.210087      -277.8306
   3   1.0000     -10.208489      -277.7871
   4   1.0000     -10.207214      -277.7524
   5   1.0000     -10.176144      -276.9069
   6   1.0000     -10.170599      -276.7561
   7   1.0000     -10.165441      -276.6157
   8   1.0000     -10.165120      -276.6070
   9   1.0000     -10.159216      -276.4463
  10   1.0000     -10.156635      -276.3761
  11   1.0000      -1.020935       -27.7811
  12   1.0000      -0.866346       -23.5745
  13   1.0000      -0.815323       -22.1861
  14   1.0000      -0.777288       -21.1511
  15   1.0000      -0.751049       -20.4371
  16   1.0000      -0.741659       -20.1816
  17   1.0000      -0.655387       -17.8340
  18   1.0000      -0.640662       -17.4333
  19   1.0000      -0.593038       -16.1374
  20   1.0000      -0.588568       -16.0157
  21   1.0000      -0.553012       -15.0482
  22   1.0000      -0.520827       -14.1724
  23   1.0000      -0.517491       -14.0816
  24   1.0000      -0.469534       -12.7767
  25   1.0000      -0.460480       -12.5303
  26   1.0000      -0.439220       -11.9518
  27   1.0000      -0.436847       -11.8872
  28   1.0000      -0.431778       -11.7493
  29   1.0000      -0.420718       -11.4483
  30   1.0000      -0.407293       -11.0830
  31   1.0000      -0.398785       -10.8515
  32   1.0000      -0.392648       -10.6845
  33   1.0000      -0.384539       -10.4638
  34   1.0000      -0.352403        -9.5894
  35   1.0000      -0.350387        -9.5345
  36   1.0000      -0.329141        -8.9564
  37   1.0000      -0.327415        -8.9094
  38   1.0000      -0.323747        -8.8096
  39   1.0000      -0.320113        -8.7107
  40   1.0000      -0.315482        -8.5847
  41   1.0000      -0.242619        -6.6020
  42   0.0000      -0.027061        -0.7364
  43   0.0000       0.005195         0.1414
  44   0.0000       0.019019         0.5175
  45   0.0000       0.021569         0.5869
  46   0.0000       0.022794         0.6203

                 SPIN DOWN ORBITALS
  NO   OCC          E(Eh)            E(eV)
   0   1.0000     -14.397509      -391.7761
   1   1.0000     -10.246716      -278.8273
   2   1.0000     -10.208858      -277.7971
   3   1.0000     -10.207686      -277.7652
   4   1.0000     -10.198877      -277.5256
   5   1.0000     -10.176007      -276.9032
   6   1.0000     -10.171059      -276.7686
   7   1.0000     -10.165389      -276.6143
   8   1.0000     -10.165086      -276.6060
   9   1.0000     -10.159236      -276.4469
  10   1.0000     -10.156557      -276.3740
  11   1.0000      -1.006691       -27.3934
  12   1.0000      -0.860058       -23.4034
  13   1.0000      -0.813793       -22.1444
  14   1.0000      -0.770890       -20.9770
  15   1.0000      -0.748493       -20.3675
  16   1.0000      -0.734215       -19.9790
  17   1.0000      -0.654085       -17.7986
  18   1.0000      -0.634349       -17.2615
  19   1.0000      -0.589557       -16.0427
  20   1.0000      -0.585749       -15.9390
  21   1.0000      -0.548921       -14.9369
  22   1.0000      -0.514059       -13.9883
  23   1.0000      -0.508233       -13.8297
  24   1.0000      -0.464102       -12.6289
  25   1.0000      -0.456069       -12.4103
  26   1.0000      -0.435718       -11.8565
  27   1.0000      -0.434619       -11.8266
  28   1.0000      -0.428404       -11.6575
  29   1.0000      -0.410650       -11.1743
  30   1.0000      -0.404561       -11.0087
  31   1.0000      -0.396156       -10.7800
  32   1.0000      -0.390056       -10.6140
  33   1.0000      -0.376352       -10.2410
  34   1.0000      -0.351482        -9.5643
  35   1.0000      -0.349789        -9.5182
  36   1.0000      -0.327648        -8.9158
  37   1.0000      -0.325249        -8.8505
  38   1.0000      -0.321450        -8.7471
  39   1.0000      -0.315434        -8.5834
  40   1.0000      -0.301068        -8.1925
  41   0.0000      -0.146756        -3.9934
  42   0.0000       0.002120         0.0577
  43   0.0000       0.009841         0.2678
  44   0.0000       0.020500         0.5578
  45   0.0000       0.022963         0.6249

MULLIKEN ATOMIC CHARGES AND SPIN POPULATIONS
--------------------------------------------
   0 C :    0.115387    0.040521
   1 C :    0.610258   -0.112394
   2 C :   -0.327290    0.625140
   3 C :   -0.301162   -0.118783
   4 C :   -0.304765   -0.002132
   5 C :   -0.487370    0.000386
   6 H :    0.210928    0.001306
   7 H :    0.095102   -0.002066
   8 H :    0.207830   -0.000170
   9 H :    0.122975   -0.001295
  10 H :    0.203701    0.029041
  11 H :    0.166010    0.072338
  12 H :    0.077912    0.039170
  13 N :    0.242036    0.427452
  14 C :   -0.430074   -0.021274
  15 C :   -0.428637    0.002935
  16 C :   -0.372257   -0.000257
  17 C :   -0.374790   -0.039621
  18 H :    0.238504    0.012974
  19 H :    0.235180    0.037762
  20 H :    0.243438   -0.000162
  21 H :    0.084264    0.000267
  22 H :    0.238983   -0.000348
  23 H :    0.089420    0.000186
  24 H :    0.238891    0.007332
  25 H :    0.212444    0.017280
  26 H :    0.210061   -0.008343
  27 H :    0.183022   -0.007248
Sum of atomic charges         :    1.0000000

LOEWDIN ATOMIC CHARGES AND SPIN POPULATIONS
-------------------------------------------
   0 C :    0.318560   -0.000856
   1 C :   -0.098217    0.091974
   2 C :    0.357257    0.325307
   3 C :    0.300175    0.099605
   4 C :    0.291651    0.004937
   5 C :    0.299293    0.001845
   6 H :   -0.121673    0.000252
   7 H :   -0.118780    0.000276
   8 H :   -0.125211    0.000087
   9 H :   -0.122677    0.000811
  10 H :   -0.119591    0.014684
  11 H :   -0.111589    0.028150
  12 H :   -0.148857    0.062589
  13 N :    0.347068    0.245511
  14 C :    0.264511    0.035392
  15 C :    0.324408    0.000509
  16 C :    0.326447    0.002123
  17 C :    0.264483    0.045672
  18 H :   -0.113106    0.008009
  19 H :   -0.094575    0.015784
  20 H :   -0.117259   -0.000065
  21 H :   -0.119210    0.000290
  22 H :   -0.117578   -0.000066
  23 H :   -0.120048   -0.000007
  24 H :   -0.114379    0.007404
  25 H :   -0.095533    0.011165
  26 H :   -0.129995   -0.000980
  27 H :   -0.105574   -0.000401

  Mayer bond orders larger than 0.100000
B(  0-C ,  1-C ) :   0.4397 B(  0-C ,  5-C ) :   0.9054 B(  0-C , 26-H ) :   0.9300
B(  0-C , 27-H ) :   0.9687 B(  1-C ,  2-C ) :   0.2105 B(  1-C ,  3-C ) :  -0.1698
B(  1-C ,  4-C ) :  -0.1341 B(  1-C , 12-H ) :  -0.1736 B(  1-C , 13-N ) :   0.5669
B(  1-C , 14-C ) :  -0.1011 B(  1-C , 26-H ) :  -0.1030 B(  2-C ,  3-C ) :   0.7394
B(  2-C ,  4-C ) :   0.1779 B(  2-C , 12-H ) :   0.9592 B(  2-C , 13-N ) :  -0.2304
B(  2-C , 14-C ) :  -0.1076 B(  2-C , 17-C ) :   0.1265 B(  3-C ,  4-C ) :   0.9371
B(  3-C ,  5-C ) :   0.1049 B(  3-C , 10-H ) :   0.9367 B(  3-C , 11-H ) :   0.9870
B(  4-C ,  5-C ) :   0.9322 B(  4-C ,  8-H ) :   0.9421 B(  4-C ,  9-H ) :   1.0286
B(  5-C ,  6-H ) :   0.9304 B(  5-C ,  7-H ) :   1.0630 B( 12-H , 14-C ) :  -0.1057
B( 13-N , 14-C ) :   0.8088 B( 13-N , 17-C ) :   0.6900 B( 14-C , 15-C ) :   0.9366
B( 14-C , 16-C ) :   0.1012 B( 14-C , 24-H ) :   0.9743 B( 14-C , 25-H ) :   0.9778
B( 15-C , 16-C ) :   0.9728 B( 15-C , 17-C ) :   0.1200 B( 15-C , 22-H ) :   0.9406
B( 15-C , 23-H ) :   1.0587 B( 16-C , 17-C ) :   0.8987 B( 16-C , 20-H ) :   0.9305
B( 16-C , 21-H ) :   1.0670 B( 17-C , 18-H ) :   0.9453 B( 17-C , 19-H ) :   0.9458

Dispersion correction           -0.009342309
FINAL SINGLE POINT ENERGY      -445.771740542418

DIPOLE MOMENT
-------------

Method             : SCF
Type of density    : Electron Density
Multiplicity       :   2
Irrep              :   0
Energy             :  -445.7623982332338528 Eh
Relativity type    :
Basis              : AO
                                X                 Y                 Z
Electronic contribution:     -0.955337384       1.290960541       0.063436685
Nuclear contribution   :      0.360970584      -1.012753361      -0.049963368
                        -----------------------------------------
Total Dipole Moment    :     -0.594366799       0.278207180       0.013473317
                        -----------------------------------------
Magnitude (a.u.)       :      0.656393676
Magnitude (Debye)      :      1.668420132

Rotational constants in cm-1:             0.091390             0.021094             0.017904
Rotational constants in MHz :          2739.816467           632.377129           536.750842

                             ****ORCA TERMINATED NORMALLY****
TOTAL RUN TIME: 0 days 0 hours 19 minutes 0 seconds 552 msec
