                         Program Version 6.0.0  -   RELEASE  -
|  1> !B3LYP freq aug-cc-pVTZ d3 TightSCF SlowConv RIJCOSX defgrid2
|  2>
|  3> %pal
|  4> nprocs 12
|  5> end
|  6>
|  7> %scf
|  8> MaxIter 1500
|  9> end
| 10>
| 11> %maxcore 5000
| 12>
| 13> !CPCM
| 14> %cpcm smd true
| 15> SMDsolvent "MeCN"
| 16> surfacetype gepol_ses
| 17> rsolv 2.19
| 18> end
| 19>
| 20> * xyz 1 2
| 21> C           2.43630366046240     -0.69244979416548     -0.00011422512832
| 22> C           2.43633091746412      0.69238786321904     -0.00025015579916
| 23> C           1.22756878180802      1.39617811281927     -0.00023115514473
| 24> C           0.00000641936231      0.71226422412073      0.00002450863052
| 25> C          -1.22752802559705      1.39621893860249      0.00026996758847
| 26> C          -2.43630551205833      0.69245386181267      0.00022110209924
| 27> C          -2.43632325323117     -0.69239684726508      0.00009930656504
| 28> C          -1.22755945885502     -1.39618513786166      0.00014164778959
| 29> C          -0.00001241217544     -0.71225119996126      0.00001513222453
| 30> C           1.22752344759567     -1.39620334421640     -0.00011973933735
| 31> H           1.23223379063826     -2.47721989811419     -0.00004663890669
| 32> H          -1.23228652487473     -2.47720733228780      0.00011047488280
| 33> H          -3.36959136056547     -1.23599086585187     -0.00038697288572
| 34> H          -3.36955580142046      1.23607060720091     -0.00020495018384
| 35> H          -1.23222332944000      2.47724045418195      0.00031244370913
| 36> H           1.23230304159926      2.47720053693322     -0.00021720927724
| 37> H           3.36959883022010      1.23598219918733      0.00011386519089
| 38> H           3.36954778906756     -1.23607037835387      0.00033919798281
| 39> *
| 40>
| 41>                          ****END OF INPUT****

CARTESIAN COORDINATES (ANGSTROEM)
---------------------------------
  C      2.436304   -0.692450   -0.000114
  C      2.436331    0.692388   -0.000250
  C      1.227569    1.396178   -0.000231
  C      0.000006    0.712264    0.000025
  C     -1.227528    1.396219    0.000270
  C     -2.436306    0.692454    0.000221
  C     -2.436323   -0.692397    0.000099
  C     -1.227559   -1.396185    0.000142
  C     -0.000012   -0.712251    0.000015
  C      1.227523   -1.396203   -0.000120
  H      1.232234   -2.477220   -0.000047
  H     -1.232287   -2.477207    0.000110
  H     -3.369591   -1.235991   -0.000387
  H     -3.369556    1.236071   -0.000205
  H     -1.232223    2.477240    0.000312
  H      1.232303    2.477201   -0.000217
  H      3.369599    1.235982    0.000114
  H      3.369548   -1.236070    0.000339

 Total Charge           Charge          ....    1
 Multiplicity           Mult            ....    2
 Number of Electrons    NEL             ....   67
 Basis Dimension        Dim             ....  644

ORBITAL ENERGIES
----------------
                 SPIN UP ORBITALS
  NO   OCC          E(Eh)            E(eV)
   0   1.0000     -10.230526      -278.3868
   1   1.0000     -10.230501      -278.3861
   2   1.0000     -10.230478      -278.3855
   3   1.0000     -10.230467      -278.3852
   4   1.0000     -10.218816      -278.0681
   5   1.0000     -10.218335      -278.0550
   6   1.0000     -10.215368      -277.9743
   7   1.0000     -10.215366      -277.9742
   8   1.0000     -10.214729      -277.9569
   9   1.0000     -10.214711      -277.9564
  10   1.0000      -0.919738       -25.0274
  11   1.0000      -0.865010       -23.5381
  12   1.0000      -0.818454       -22.2713
  13   1.0000      -0.782123       -21.2826
  14   1.0000      -0.759280       -20.6611
  15   1.0000      -0.668185       -18.1822
  16   1.0000      -0.647904       -17.6304
  17   1.0000      -0.634285       -17.2598
  18   1.0000      -0.549781       -14.9603
  19   1.0000      -0.543208       -14.7814
  20   1.0000      -0.530435       -14.4339
  21   1.0000      -0.480561       -13.0767
  22   1.0000      -0.478462       -13.0196
  23   1.0000      -0.455834       -12.4039
  24   1.0000      -0.452210       -12.3053
  25   1.0000      -0.437435       -11.9032
  26   1.0000      -0.426918       -11.6170
  27   1.0000      -0.406443       -11.0599
  28   1.0000      -0.373659       -10.1678
  29   1.0000      -0.372596       -10.1389
  30   1.0000      -0.366968        -9.9857
  31   1.0000      -0.335977        -9.1424
  32   1.0000      -0.286358        -7.7922
  33   1.0000      -0.265315        -7.2196
  34   0.0000      -0.097255        -2.6464
  35   0.0000      -0.048323        -1.3149
  36   0.0000      -0.025970        -0.7067
  37   0.0000      -0.006403        -0.1742
  38   0.0000       0.005242         0.1426

                 SPIN DOWN ORBITALS
  NO   OCC          E(Eh)            E(eV)
   0   1.0000     -10.226941      -278.2892
   1   1.0000     -10.226904      -278.2882
   2   1.0000     -10.226900      -278.2881
   3   1.0000     -10.226875      -278.2874
   4   1.0000     -10.219743      -278.0934
   5   1.0000     -10.219264      -278.0803
   6   1.0000     -10.214741      -277.9572
   7   1.0000     -10.214738      -277.9572
   8   1.0000     -10.214091      -277.9395
   9   1.0000     -10.214074      -277.9391
  10   1.0000      -0.915415       -24.9097
  11   1.0000      -0.858715       -23.3668
  12   1.0000      -0.810381       -22.0516
  13   1.0000      -0.781256       -21.2591
  14   1.0000      -0.747725       -20.3466
  15   1.0000      -0.663770       -18.0621
  16   1.0000      -0.644392       -17.5348
  17   1.0000      -0.630206       -17.1488
  18   1.0000      -0.547162       -14.8890
  19   1.0000      -0.539323       -14.6757
  20   1.0000      -0.528317       -14.3762
  21   1.0000      -0.478267       -13.0143
  22   1.0000      -0.477864       -13.0033
  23   1.0000      -0.453477       -12.3397
  24   1.0000      -0.449382       -12.2283
  25   1.0000      -0.425072       -11.5668
  26   1.0000      -0.424346       -11.5470
  27   1.0000      -0.405346       -11.0300
  28   1.0000      -0.370191       -10.0734
  29   1.0000      -0.366113        -9.9625
  30   1.0000      -0.355004        -9.6602
  31   1.0000      -0.309129        -8.4118
  32   1.0000      -0.285150        -7.7593
  33   0.0000      -0.197921        -5.3857
  34   0.0000      -0.073159        -1.9908
  35   0.0000      -0.040209        -1.0941
  36   0.0000      -0.011631        -0.3165
  37   0.0000      -0.006153        -0.1674

MULLIKEN ATOMIC CHARGES AND SPIN POPULATIONS
--------------------------------------------
   0 C :   -0.352374    0.038077
   1 C :   -0.353281    0.038029
   2 C :   -1.045576    0.249516
   3 C :    1.742238   -0.061670
   4 C :   -1.041950    0.249480
   5 C :   -0.357207    0.037989
   6 C :   -0.352047    0.038029
   7 C :   -1.047064    0.249483
   8 C :    1.747931   -0.061715
   9 C :   -1.038066    0.249512
  10 H :    0.120743   -0.006130
  11 H :    0.119408   -0.006018
  12 H :    0.663197   -0.000630
  13 H :    0.649031   -0.000668
  14 H :    0.124709   -0.005973
  15 H :    0.118766   -0.006031
  16 H :    0.652422   -0.000654
  17 H :    0.649120   -0.000626
Sum of atomic charges         :    1.0000000

LOEWDIN ATOMIC CHARGES AND SPIN POPULATIONS
-------------------------------------------
   0 C :    0.280435    0.073327
   1 C :    0.280434    0.073322
   2 C :    0.302033    0.128510
   3 C :   -0.087892    0.031550
   4 C :    0.302034    0.128504
   5 C :    0.280438    0.073321
   6 C :    0.280441    0.073323
   7 C :    0.302037    0.128505
   8 C :   -0.087881    0.031550
   9 C :    0.302040    0.128509
  10 H :   -0.137359    0.025077
  11 H :   -0.137357    0.025076
  12 H :   -0.151170    0.007318
  13 H :   -0.151177    0.007318
  14 H :   -0.137356    0.025076
  15 H :   -0.137357    0.025078
  16 H :   -0.151168    0.007317
  17 H :   -0.151177    0.007319

  Mayer bond orders larger than 0.100000
B(  0-C ,  1-C ) :   1.2257 B(  0-C ,  3-C ) :  -0.2667 B(  0-C ,  9-C ) :   1.0836
B(  0-C , 17-H ) :   0.3164 B(  1-C ,  2-C ) :   1.0854 B(  1-C ,  8-C ) :  -0.2726
B(  1-C , 16-H ) :   0.3153 B(  2-C ,  3-C ) :  -0.1072 B(  2-C ,  4-C ) :   0.5294
B(  2-C ,  8-C ) :  -0.3241 B(  2-C , 15-H ) :   1.3000 B(  2-C , 16-H ) :  -0.2127
B(  3-C ,  4-C ) :  -0.1076 B(  3-C ,  6-C ) :  -0.2729 B(  3-C ,  7-C ) :  -0.3281
B(  3-C ,  8-C ) :   1.3150 B(  3-C ,  9-C ) :  -0.3257 B(  4-C ,  5-C ) :   1.0904
B(  4-C ,  8-C ) :  -0.3303 B(  4-C , 13-H ) :  -0.2120 B(  4-C , 14-H ) :   1.2956
B(  5-C ,  6-C ) :   1.2264 B(  5-C ,  8-C ) :  -0.2737 B(  5-C , 13-H ) :   0.3139
B(  6-C ,  7-C ) :   1.0899 B(  6-C , 12-H ) :   0.2954 B(  7-C ,  8-C ) :  -0.1090
B(  7-C ,  9-C ) :   0.5286 B(  7-C , 11-H ) :   1.3044 B(  7-C , 12-H ) :  -0.2151
B(  8-C ,  9-C ) :  -0.1066 B(  9-C , 10-H ) :   1.2995 B(  9-C , 17-H ) :  -0.2116

Dispersion correction           -0.036605339
FINAL SINGLE POINT ENERGY      -385.617360789666

DIPOLE MOMENT
-------------

Method             : SCF
Type of density    : Electron Density
Multiplicity       :   2
Irrep              :   0
Energy             :  -385.5807554508119210 Eh
Relativity type    :
Basis              : AO
                                X                 Y                 Z
Electronic contribution:      0.000015813      -0.000041765       0.000016138
Nuclear contribution   :      0.000020030      -0.000007050      -0.000021892
                        -----------------------------------------
Total Dipole Moment    :      0.000035843      -0.000048815      -0.000005754
                        -----------------------------------------
Magnitude (a.u.)       :      0.000060834
Magnitude (Debye)      :      0.000154627

VIBRATIONAL FREQUENCIES
-----------------------

Scaling factor for frequencies =  1.000000000  (already applied!)

     0:       0.00 cm**-1
     1:       0.00 cm**-1
     2:       0.00 cm**-1
     3:       0.00 cm**-1
     4:       0.00 cm**-1
     5:       0.00 cm**-1
     6:     145.12 cm**-1
     7:     161.73 cm**-1
     8:     339.15 cm**-1
     9:     368.63 cm**-1
    10:     410.48 cm**-1
    11:     424.73 cm**-1
    12:     452.57 cm**-1
    13:     467.75 cm**-1
    14:     511.59 cm**-1
    15:     597.85 cm**-1
    16:     735.31 cm**-1
    17:     743.29 cm**-1
    18:     760.23 cm**-1
    19:     773.31 cm**-1
    20:     808.31 cm**-1
    21:     864.43 cm**-1
    22:     935.68 cm**-1
    23:     936.24 cm**-1
    24:     975.90 cm**-1
    25:    1000.57 cm**-1
    26:    1016.95 cm**-1
    27:    1024.21 cm**-1
    28:    1027.09 cm**-1
    29:    1053.88 cm**-1
    30:    1104.19 cm**-1
    31:    1109.07 cm**-1
    32:    1165.97 cm**-1
    33:    1172.46 cm**-1
    34:    1211.66 cm**-1
    35:    1244.32 cm**-1
    36:    1295.16 cm**-1
    37:    1410.19 cm**-1
    38:    1414.51 cm**-1
    39:    1418.36 cm**-1
    40:    1452.27 cm**-1
    41:    1489.45 cm**-1
    42:    1504.39 cm**-1
    43:    1544.95 cm**-1
    44:    1556.83 cm**-1
    45:    1621.87 cm**-1
    46:    3186.74 cm**-1
    47:    3192.19 cm**-1
    48:    3194.30 cm**-1
    49:    3196.39 cm**-1
    50:    3203.34 cm**-1
    51:    3204.53 cm**-1
    52:    3214.07 cm**-1
    53:    3214.83 cm**-1

IR SPECTRUM
-----------

 Mode   freq       eps      Int      T**2         TX        TY        TZ
       cm**-1   L/(mol*cm) km/mol    a.u.
----------------------------------------------------------------------------
  6:    145.12   0.000806    4.07  0.001733  (-0.001762 -0.000001 -0.041596)
  7:    161.73   0.000000    0.00  0.000000  (-0.000008 -0.000396  0.000027)
  8:    339.15   0.000297    1.50  0.000273  ( 0.000002 -0.016532 -0.000003)
  9:    368.63   0.000000    0.00  0.000000  ( 0.000010  0.000011  0.000021)
 10:    410.48   0.008080   40.83  0.006143  (-0.000101  0.000005  0.078375)
 11:    424.73   0.000000    0.00  0.000000  ( 0.000257  0.000002  0.000318)
 12:    452.57   0.000000    0.00  0.000000  ( 0.000008  0.000442  0.000032)
 13:    467.75   0.000000    0.00  0.000000  (-0.000001 -0.000000 -0.000023)
 14:    511.59   0.000000    0.00  0.000000  (-0.000002 -0.000001  0.000003)
 15:    597.85   0.005249   26.53  0.002740  (-0.052342  0.000001 -0.000119)
 16:    735.31   0.000000    0.00  0.000000  ( 0.000010  0.000012  0.000035)
 17:    743.29   0.000000    0.00  0.000000  (-0.000108  0.000002 -0.000284)
 18:    760.23   0.033253  168.05  0.013650  (-0.000276 -0.000001 -0.116833)
 19:    773.31   0.000000    0.00  0.000000  (-0.000005  0.000000  0.000002)
 20:    808.31   0.000256    1.29  0.000099  ( 0.000003  0.009937  0.000002)
 21:    864.43   0.000000    0.00  0.000000  ( 0.000007  0.000261 -0.000001)
 22:    935.68   0.000000    0.00  0.000000  (-0.000062  0.000005  0.000036)
 23:    936.24   0.000000    0.00  0.000000  (-0.000025 -0.000001  0.000006)
 24:    975.90   0.000000    0.00  0.000000  ( 0.000006  0.000012  0.000012)
 25:   1000.57   0.000825    4.17  0.000257  (-0.000485  0.000006  0.016030)
 26:   1016.95   0.000000    0.00  0.000000  ( 0.000009  0.000186  0.000006)
 27:   1024.21   0.000000    0.00  0.000000  (-0.000019  0.000002 -0.000051)
 28:   1027.09   0.000049    0.25  0.000015  ( 0.003854  0.000005 -0.000375)
 29:   1053.88   0.000000    0.00  0.000000  (-0.000010  0.000003  0.000001)
 30:   1104.19   0.000000    0.00  0.000000  (-0.000015 -0.000031  0.000001)
 31:   1109.07   0.001101    5.56  0.000310  (-0.000016 -0.017600 -0.000001)
 32:   1165.97   0.010456   52.84  0.002798  ( 0.052901 -0.000004 -0.000017)
 33:   1172.46   0.000000    0.00  0.000000  (-0.000103  0.000002 -0.000001)
 34:   1211.66   0.111675  564.36  0.028762  (-0.169593  0.000006 -0.000025)
 35:   1244.32   0.000000    0.00  0.000000  (-0.000058  0.000017  0.000010)
 36:   1295.16   0.001489    7.52  0.000359  (-0.000028 -0.018940 -0.000000)
 37:   1410.19   0.010700   54.07  0.002368  ( 0.048661 -0.000024 -0.000100)
 38:   1414.51   0.000000    0.00  0.000000  (-0.000088 -0.000026  0.000001)
 39:   1418.36   0.011887   60.07  0.002615  ( 0.000006  0.051140  0.000000)
 40:   1452.27   0.000000    0.00  0.000000  ( 0.000029 -0.000005  0.000007)
 41:   1489.45   0.000000    0.00  0.000000  ( 0.000024  0.000016 -0.000001)
 42:   1504.39   0.000000    0.00  0.000000  ( 0.000018  0.000003  0.000002)
 43:   1544.95   0.033272  168.14  0.006721  (-0.000047 -0.081980  0.000000)
 44:   1556.83   0.036059  182.23  0.007228  (-0.085017  0.000039  0.000090)
 45:   1621.87   0.000000    0.00  0.000000  ( 0.000017 -0.000008  0.000002)
 46:   3186.74   0.000000    0.00  0.000000  (-0.000020 -0.000000  0.000000)
 47:   3192.19   0.000237    1.20  0.000023  ( 0.000035  0.004816  0.000000)
 48:   3194.30   0.000374    1.89  0.000037  (-0.006047  0.000025 -0.000042)
 49:   3196.39   0.000000    0.00  0.000000  ( 0.000015  0.000008 -0.000000)
 50:   3203.34   0.000000    0.00  0.000000  ( 0.000012  0.000034 -0.000001)
 51:   3204.53   0.002128   10.75  0.000207  (-0.000043 -0.014394  0.000000)
 52:   3214.07   0.004562   23.05  0.000443  ( 0.021046 -0.000027 -0.000148)
 53:   3214.83   0.000000    0.00  0.000000  (-0.000005  0.000009 -0.000000)

--------------------------
THERMOCHEMISTRY AT 298.15K
--------------------------

Temperature         ...   298.15 K
Pressure            ...     1.00 atm
Total Mass          ...   128.17 AMU
Quasi RRHO          ...     True
Cut-Off Frequency   ...     1.00 cm^-1

Throughout the following assumptions are being made:
  (1) The electronic state is orbitally nondegenerate
      but the spin degeneracy is treated
  (2) There are no thermally accessible electronically excited states
  (3) Hindered rotations indicated by low frequency modes are not
      treated as such but are treated as vibrations and this may
      cause some error
  (4) All equations used are the standard statistical mechanics
      equations for an ideal gas
  (5) All vibrations are strictly harmonic

freq.     145.12  E(vib)   ...       0.41
freq.     161.73  E(vib)   ...       0.39
freq.     339.15  E(vib)   ...       0.23
freq.     368.63  E(vib)   ...       0.21
freq.     410.48  E(vib)   ...       0.19
freq.     424.73  E(vib)   ...       0.18
freq.     452.57  E(vib)   ...       0.16
freq.     467.75  E(vib)   ...       0.16
freq.     511.59  E(vib)   ...       0.14
freq.     597.85  E(vib)   ...       0.10
freq.     735.31  E(vib)   ...       0.06
freq.     743.29  E(vib)   ...       0.06
freq.     760.23  E(vib)   ...       0.06
freq.     773.31  E(vib)   ...       0.05
freq.     808.31  E(vib)   ...       0.05
freq.     864.43  E(vib)   ...       0.04
freq.     935.68  E(vib)   ...       0.03
freq.     936.24  E(vib)   ...       0.03
freq.     975.90  E(vib)   ...       0.03
freq.    1000.57  E(vib)   ...       0.02
freq.    1016.95  E(vib)   ...       0.02
freq.    1024.21  E(vib)   ...       0.02
freq.    1027.09  E(vib)   ...       0.02
freq.    1053.88  E(vib)   ...       0.02
freq.    1104.19  E(vib)   ...       0.02
freq.    1109.07  E(vib)   ...       0.02
freq.    1165.97  E(vib)   ...       0.01
freq.    1172.46  E(vib)   ...       0.01
freq.    1211.66  E(vib)   ...       0.01
freq.    1244.32  E(vib)   ...       0.01
freq.    1295.16  E(vib)   ...       0.01
freq.    1410.19  E(vib)   ...       0.00
freq.    1414.51  E(vib)   ...       0.00
freq.    1418.36  E(vib)   ...       0.00
freq.    1452.27  E(vib)   ...       0.00
freq.    1489.45  E(vib)   ...       0.00
freq.    1504.39  E(vib)   ...       0.00
freq.    1544.95  E(vib)   ...       0.00
freq.    1556.83  E(vib)   ...       0.00
freq.    1621.87  E(vib)   ...       0.00
freq.    3186.74  E(vib)   ...       0.00
freq.    3192.19  E(vib)   ...       0.00
freq.    3194.30  E(vib)   ...       0.00
freq.    3196.39  E(vib)   ...       0.00
freq.    3203.34  E(vib)   ...       0.00
freq.    3204.53  E(vib)   ...       0.00
freq.    3214.07  E(vib)   ...       0.00
freq.    3214.83  E(vib)   ...       0.00

------------
INNER ENERGY
------------

The inner energy is: U= E(el) + E(ZPE) + E(vib) + E(rot) + E(trans)
    E(el)   - is the total energy from the electronic structure calculation
              = E(kin-el) + E(nuc-el) + E(el-el) + E(nuc-nuc)
    E(ZPE)  - the the zero temperature vibrational energy from the frequency calculation
    E(vib)  - the the finite temperature correction to E(ZPE) due to population
              of excited vibrational states
    E(rot)  - is the rotational thermal energy
    E(trans)- is the translational thermal energy

Summary of contributions to the inner energy U:
Electronic energy                ...   -385.61736079 Eh
Zero point energy                ...      0.14547711 Eh      91.29 kcal/mol
Thermal vibrational correction   ...      0.00445172 Eh       2.79 kcal/mol
Thermal rotational correction    ...      0.00141627 Eh       0.89 kcal/mol
Thermal translational correction ...      0.00141627 Eh       0.89 kcal/mol
-----------------------------------------------------------------------
Total thermal energy                   -385.46459941 Eh

Summary of corrections to the electronic energy:
(perhaps to be used in another calculation)
Total thermal correction                  0.00728427 Eh       4.57 kcal/mol
Non-thermal (ZPE) correction              0.14547711 Eh      91.29 kcal/mol
-----------------------------------------------------------------------
Total correction                          0.15276138 Eh      95.86 kcal/mol

--------
ENTHALPY
--------

The enthalpy is H = U + kB*T
                kB is Boltzmann's constant
Total thermal energy              ...   -385.46459941 Eh
Thermal Enthalpy correction       ...      0.00094421 Eh       0.59 kcal/mol
-----------------------------------------------------------------------
Total Enthalpy                    ...   -385.46365520 Eh

Note: Rotational entropy computed according to Herzberg
Infrared and Raman Spectra, Chapter V,1, Van Nostrand Reinhold, 1945
Point Group:  C2, Symmetry Number:   2
Rotational constants in cm-1:     0.105506     0.041169     0.029614

Vibrational entropy computed according to the QRRHO of S. Grimme
Chem.Eur.J. 2012 18 9955 using a reference frequency of 100.0 cm-1

-------
ENTROPY
-------

The entropy contributions are T*S = T*(S(el)+S(vib)+S(rot)+S(trans))
     S(el)   - electronic entropy
     S(vib)  - vibrational entropy
     S(rot)  - rotational entropy
     S(trans)- translational entropy
The entropies will be listed as multiplied by the temperature to get
units of energy

Electronic entropy                ...      0.00065446 Eh      0.41 kcal/mol
Vibrational entropy               ...      0.00688615 Eh      4.32 kcal/mol
Rotational entropy                ...      0.01308560 Eh      8.21 kcal/mol
Translational entropy             ...      0.01922279 Eh     12.06 kcal/mol
-----------------------------------------------------------------------
Final entropy term                ...      0.03984900 Eh     25.01 kcal/mol

In case the symmetry of your molecule has not been determined correctly
or in case you have a reason to use a different symmetry number we print
out the resulting rotational entropy values for sn=1,12:

 non-linear molecules -----------------------------------
|  sn= 1 | S(rot)=       0.01374006 Eh      8.62 kcal/mol|
|  sn= 2 | S(rot)=       0.01308560 Eh      8.21 kcal/mol|
|  sn= 3 | S(rot)=       0.01270277 Eh      7.97 kcal/mol|
|  sn= 4 | S(rot)=       0.01243115 Eh      7.80 kcal/mol|
|  sn= 5 | S(rot)=       0.01222046 Eh      7.67 kcal/mol|
|  sn= 6 | S(rot)=       0.01204832 Eh      7.56 kcal/mol|
|  sn= 7 | S(rot)=       0.01190277 Eh      7.47 kcal/mol|
|  sn= 8 | S(rot)=       0.01177669 Eh      7.39 kcal/mol|
|  sn= 9 | S(rot)=       0.01166548 Eh      7.32 kcal/mol|
|  sn=10 | S(rot)=       0.01156600 Eh      7.26 kcal/mol|
|  sn=11 | S(rot)=       0.01147601 Eh      7.20 kcal/mol|
|  sn=12 | S(rot)=       0.01139386 Eh      7.15 kcal/mol|
 linear molecules ---------------------------------------
|  Dinfh | S(rot)=       0.00864886 Eh      5.43 kcal/mol|
|  Cinfv | S(rot)=       0.00930332 Eh      5.84 kcal/mol|
 --------------------------------------------------------

                             ****ORCA TERMINATED NORMALLY****
TOTAL RUN TIME: 0 days 0 hours 52 minutes 43 seconds 367 msec
