                         Program Version 6.0.0  -   RELEASE  -
|  1> !TPSSh aug-cc-pVTZ d3 TightSCF SlowConv RIJCOSX defgrid2
|  2>
|  3> %pal
|  4> nprocs 4
|  5> end
|  6>
|  7> %scf
|  8> MaxIter 1500
|  9> end
| 10>
| 11> %maxcore 3000
| 12>
| 13> !CPCM
| 14> %cpcm smd true
| 15> SMDsolvent "MeCN"
| 16> surfacetype gepol_ses
| 17> rsolv 2.19
| 18> end
| 19>
| 20> * xyz 0 1
| 21> C          -0.33578897576289      0.78706332413970     -0.00007064342653
| 22> C          -1.63104450940735      0.25443214150099      0.00002424994707
| 23> C          -1.80666505085776     -1.13184792287007      0.00010488474499
| 24> C          -0.67709514280741     -1.95709297790421      0.00008171672668
| 25> C           0.60485199074243     -1.42986794226310     -0.00000896897667
| 26> C           0.79403740595386     -0.03404919740528     -0.00007754792200
| 27> C           2.11776775675579      0.59942775277408     -0.00015788147995
| 28> C           3.31301096591764     -0.01037680773538      0.00016998990263
| 29> C           4.62672268480693      0.69670422006693      0.00006613977785
| 30> H           5.22986800286636      0.42062681248378     -0.88556810108390
| 31> H           5.22969209158747      0.42121685919020      0.88600364391119
| 32> H           4.49947065542959      1.79239087728672     -0.00031400154329
| 33> H           3.35830731979376     -1.10765129675188      0.00055685548665
| 34> H           2.10183131012046      1.69773297660842     -0.00050241232510
| 35> H           1.46480294351024     -2.10372145346859     -0.00005885954138
| 36> H          -0.81507815522221     -3.04272899333565      0.00012435061663
| 37> H          -2.80202830314914     -1.57931173714880      0.00017356816380
| 38> O          -2.63880088575063      1.15236499149081      0.00002597094029
| 39> C          -3.95583677666632      0.68525859520605      0.00017372040280
| 40> H          -4.60351833384684      1.57486457447649      0.00019490121742
| 41> H          -4.17725863855936      0.08018155004781      0.90083429325456
| 42> H          -4.17743481291300      0.08009944047560     -0.90038823724126
| 43> H          -0.23264934254160      1.87564721313537     -0.00013303155248
| 44> *
| 45>
| 46>                          ****END OF INPUT****

CARTESIAN COORDINATES (ANGSTROEM)
---------------------------------
  C     -0.335789    0.787063   -0.000071
  C     -1.631045    0.254432    0.000024
  C     -1.806665   -1.131848    0.000105
  C     -0.677095   -1.957093    0.000082
  C      0.604852   -1.429868   -0.000009
  C      0.794037   -0.034049   -0.000078
  C      2.117768    0.599428   -0.000158
  C      3.313011   -0.010377    0.000170
  C      4.626723    0.696704    0.000066
  H      5.229868    0.420627   -0.885568
  H      5.229692    0.421217    0.886004
  H      4.499471    1.792391   -0.000314
  H      3.358307   -1.107651    0.000557
  H      2.101831    1.697733   -0.000502
  H      1.464803   -2.103721   -0.000059
  H     -0.815078   -3.042729    0.000124
  H     -2.802028   -1.579312    0.000174
  O     -2.638801    1.152365    0.000026
  C     -3.955837    0.685259    0.000174
  H     -4.603518    1.574865    0.000195
  H     -4.177259    0.080182    0.900834
  H     -4.177435    0.080099   -0.900388
  H     -0.232649    1.875647   -0.000133

 Total Charge           Charge          ....    0
 Multiplicity           Mult            ....    1
 Number of Electrons    NEL             ....   80
 Basis Dimension        Dim             ....  782

ORBITAL ENERGIES
----------------

  NO   OCC          E(Eh)            E(eV)
   0   2.0000     -19.085573      -519.3449
   1   2.0000     -10.174362      -276.8585
   2   2.0000     -10.157376      -276.3963
   3   2.0000     -10.127851      -275.5928
   4   2.0000     -10.117884      -275.3216
   5   2.0000     -10.116404      -275.2813
   6   2.0000     -10.112314      -275.1701
   7   2.0000     -10.111869      -275.1579
   8   2.0000     -10.111249      -275.1411
   9   2.0000     -10.108509      -275.0665
  10   2.0000     -10.107065      -275.0272
  11   2.0000      -1.052441       -28.6384
  12   2.0000      -0.837443       -22.7880
  13   2.0000      -0.778156       -21.1747
  14   2.0000      -0.736761       -20.0483
  15   2.0000      -0.729061       -19.8388
  16   2.0000      -0.671114       -18.2619
  17   2.0000      -0.658481       -17.9182
  18   2.0000      -0.585617       -15.9354
  19   2.0000      -0.578984       -15.7550
  20   2.0000      -0.530443       -14.4341
  21   2.0000      -0.502862       -13.6836
  22   2.0000      -0.467333       -12.7168
  23   2.0000      -0.461830       -12.5670
  24   2.0000      -0.447974       -12.1900
  25   2.0000      -0.439488       -11.9591
  26   2.0000      -0.412446       -11.2232
  27   2.0000      -0.399744       -10.8776
  28   2.0000      -0.390940       -10.6380
  29   2.0000      -0.379011       -10.3134
  30   2.0000      -0.367527       -10.0009
  31   2.0000      -0.365677        -9.9506
  32   2.0000      -0.349390        -9.5074
  33   2.0000      -0.333796        -9.0831
  34   2.0000      -0.324862        -8.8400
  35   2.0000      -0.315652        -8.5893
  36   2.0000      -0.305313        -8.3080
  37   2.0000      -0.277982        -7.5643
  38   2.0000      -0.220925        -6.0117
  39   2.0000      -0.207427        -5.6444
  40   0.0000      -0.047042        -1.2801
  41   0.0000      -0.019102        -0.5198
  42   0.0000      -0.003043        -0.0828
  43   0.0000       0.004819         0.1311
  44   0.0000       0.009744         0.2651

MULLIKEN ATOMIC CHARGES
-----------------------
   0 C :   -0.715171
   1 C :    0.770079
   2 C :   -0.003548
   3 C :   -0.699451
   4 C :   -0.454214
   5 C :    1.356732
   6 C :    0.012487
   7 C :   -0.408129
   8 C :   -0.361336
   9 H :    0.123446
  10 H :    0.123335
  11 H :    0.130655
  12 H :    0.044444
  13 H :   -0.049624
  14 H :    0.080685
  15 H :    0.466493
  16 H :    0.096377
  17 O :   -0.677932
  18 C :   -0.251322
  19 H :    0.017155
  20 H :    0.196946
  21 H :    0.196714
  22 H :    0.005182
Sum of atomic charges:   -0.0000000

LOEWDIN ATOMIC CHARGES
----------------------
   0 C :    0.206663
   1 C :   -0.402079
   2 C :    0.198934
   3 C :    0.184782
   4 C :    0.194654
   5 C :   -0.160680
   6 C :    0.199951
   7 C :    0.200036
   8 C :    0.549283
   9 H :   -0.164328
  10 H :   -0.164350
  11 H :   -0.173955
  12 H :   -0.184176
  13 H :   -0.184403
  14 H :   -0.188151
  15 H :   -0.169111
  16 H :   -0.191955
  17 O :    0.596060
  18 C :    0.314990
  19 H :   -0.169459
  20 H :   -0.161092
  21 H :   -0.161070
  22 H :   -0.170541

  Mayer bond orders larger than 0.100000
B(  0-C ,  1-C ) :   0.6677 B(  0-C ,  4-C ) :  -0.1142 B(  0-C ,  5-C ) :   0.3694
B(  0-C ,  6-C ) :  -0.2280 B(  0-C ,  7-C ) :   0.1338 B(  0-C , 17-O ) :   0.4753
B(  0-C , 22-H ) :   1.1648 B(  1-C ,  2-C ) :   1.1287 B(  1-C , 17-O ) :  -0.1467
B(  1-C , 18-C ) :   0.1488 B(  2-C ,  3-C ) :   1.1252 B(  2-C , 16-H ) :   1.0247
B(  2-C , 17-O ) :  -0.2648 B(  2-C , 18-C ) :  -0.1302 B(  3-C ,  4-C ) :   1.2992
B(  3-C ,  5-C ) :  -0.1581 B(  3-C , 15-H ) :   0.4358 B(  4-C ,  5-C ) :   0.6764
B(  4-C ,  7-C ) :   0.1407 B(  4-C , 14-H ) :   1.0273 B(  5-C ,  6-C ) :   0.2267
B(  5-C ,  7-C ) :  -0.2128 B(  5-C , 12-H ) :  -0.1318 B(  5-C , 17-O ) :   0.1507
B(  6-C ,  7-C ) :   1.0497 B(  6-C , 13-H ) :   1.1905 B(  7-C ,  8-C ) :   1.0326
B(  7-C , 11-H ) :   0.1129 B(  7-C , 12-H ) :   1.2908 B(  8-C ,  9-H ) :   0.9757
B(  8-C , 10-H ) :   0.9763 B(  8-C , 11-H ) :   0.9306 B( 17-O , 18-C ) :   1.0083
B( 18-C , 19-H ) :   1.0570 B( 18-C , 20-H ) :   0.9387 B( 18-C , 21-H ) :   0.9396

Dispersion correction           -0.026531859
FINAL SINGLE POINT ENERGY      -463.722232020114

DIPOLE MOMENT
-------------

Method             : SCF
Type of density    : Electron Density
Multiplicity       :   1
Irrep              :   0
Energy             :  -463.6957001607107145 Eh
Relativity type    :
Basis              : AO
                                X                 Y                 Z
Electronic contribution:     -5.083393408      -0.423745675      -0.000537514
Nuclear contribution   :      4.758796555       0.116147158       0.000484674
                        -----------------------------------------
Total Dipole Moment    :     -0.324596853      -0.307598517      -0.000052840
                        -----------------------------------------
Magnitude (a.u.)       :      0.447191197
Magnitude (Debye)      :      1.136669691

Rotational constants in cm-1:             0.102459             0.016958             0.014631
Rotational constants in MHz :          3071.640827           508.382931           438.625504

                             ****ORCA TERMINATED NORMALLY****
TOTAL RUN TIME: 0 days 0 hours 8 minutes 33 seconds 596 msec
