                         Program Version 6.0.0  -   RELEASE  -
|  1> !PBE0 aug-cc-pVTZ d3 TightSCF SlowConv RIJCOSX defgrid2
|  2>
|  3> %pal
|  4> nprocs 4
|  5> end
|  6>
|  7> %scf
|  8> MaxIter 1500
|  9> end
| 10>
| 11> %maxcore 3000
| 12>
| 13> !CPCM
| 14> %cpcm smd true
| 15> SMDsolvent "MeCN"
| 16> surfacetype gepol_ses
| 17> rsolv 2.19
| 18> end
| 19>
| 20> * xyz 1 2
| 21> C           0.46714487133843     -1.31596872615065      0.00043307960453
| 22> C           1.40171557217885     -0.23770807732832      0.00025638478659
| 23> C           0.88407949479514      1.09158487284969      0.00004092926418
| 24> C          -0.46712830128476      1.31604469822195      0.00000295911120
| 25> C          -1.40170089628676      0.23778263147851      0.00017108805360
| 26> C          -0.88406255954178     -1.09151075505496      0.00038804805116
| 27> H          -1.56465680467619     -1.94551717434521      0.00051308611121
| 28> C          -2.79688855585044      0.54394549069400      0.00010405022453
| 29> C          -3.82430179119378     -0.36186733524039      0.00028564609405
| 30> C          -5.25538349314657     -0.00243324194906      0.00029381155554
| 31> H          -5.75917453342121     -0.44813816832529     -0.87970790560214
| 32> H          -5.42346358891650      1.08552343691300     -0.00039098136190
| 33> H          -5.75876746290359     -0.44688449439862      0.88117967002482
| 34> H          -3.59373242007271     -1.43478557196118      0.00051686705574
| 35> H          -3.05807707707141      1.60899060395392     -0.00011509029154
| 36> H          -0.84761071039142      2.34119359797197     -0.00016682822425
| 37> H           1.56466696644477      1.94559472915825     -0.00010365132895
| 38> C           2.79689693733142     -0.54387663280000      0.00029128970272
| 39> C           3.82431604801398      0.36192101310663      0.00012996933116
| 40> C           5.25539100174106      0.00246938598978      0.00017091184030
| 41> H           5.75904846017879      0.44783593741242      0.88042381529925
| 42> H           5.75892633220905      0.44725096613417     -0.88045536326881
| 43> H           5.42345877365595     -1.08548600733987      0.00050393935968
| 44> H           3.59376340127937      1.43483964875828     -0.00005091579321
| 45> H           3.05807564363531     -1.60891817616373      0.00047196102492
| 46> H           0.84762319195501     -2.34111455158529      0.00059172937562
| 47> *
| 48>
| 49>                          ****END OF INPUT****

CARTESIAN COORDINATES (ANGSTROEM)
---------------------------------
  C      0.467145   -1.315969    0.000433
  C      1.401716   -0.237708    0.000256
  C      0.884079    1.091585    0.000041
  C     -0.467128    1.316045    0.000003
  C     -1.401701    0.237783    0.000171
  C     -0.884063   -1.091511    0.000388
  H     -1.564657   -1.945517    0.000513
  C     -2.796889    0.543945    0.000104
  C     -3.824302   -0.361867    0.000286
  C     -5.255383   -0.002433    0.000294
  H     -5.759175   -0.448138   -0.879708
  H     -5.423464    1.085523   -0.000391
  H     -5.758767   -0.446884    0.881180
  H     -3.593732   -1.434786    0.000517
  H     -3.058077    1.608991   -0.000115
  H     -0.847611    2.341194   -0.000167
  H      1.564667    1.945595   -0.000104
  C      2.796897   -0.543877    0.000291
  C      3.824316    0.361921    0.000130
  C      5.255391    0.002469    0.000171
  H      5.759048    0.447836    0.880424
  H      5.758926    0.447251   -0.880455
  H      5.423459   -1.085486    0.000504
  H      3.593763    1.434840   -0.000051
  H      3.058076   -1.608918    0.000472
  H      0.847623   -2.341115    0.000592

 Total Charge           Charge          ....    1
 Multiplicity           Mult            ....    2
 Number of Electrons    NEL             ....   85
 Basis Dimension        Dim             ....  874

ORBITAL ENERGIES
----------------
                 SPIN UP ORBITALS
  NO   OCC          E(Eh)            E(eV)
   0   1.0000     -10.291129      -280.0359
   1   1.0000     -10.291099      -280.0350
   2   1.0000     -10.282535      -279.8020
   3   1.0000     -10.282522      -279.8017
   4   1.0000     -10.264660      -279.3156
   5   1.0000     -10.264629      -279.3147
   6   1.0000     -10.262645      -279.2608
   7   1.0000     -10.262610      -279.2598
   8   1.0000     -10.262220      -279.2492
   9   1.0000     -10.262214      -279.2490
  10   1.0000     -10.232421      -278.4383
  11   1.0000     -10.232421      -278.4383
  12   1.0000      -0.927991       -25.2519
  13   1.0000      -0.877054       -23.8658
  14   1.0000      -0.846469       -23.0336
  15   1.0000      -0.809173       -22.0187
  16   1.0000      -0.802797       -21.8452
  17   1.0000      -0.750288       -20.4164
  18   1.0000      -0.705640       -19.2014
  19   1.0000      -0.669582       -18.2202
  20   1.0000      -0.642796       -17.4914
  21   1.0000      -0.604295       -16.4437
  22   1.0000      -0.587197       -15.9785
  23   1.0000      -0.552571       -15.0362
  24   1.0000      -0.522098       -14.2070
  25   1.0000      -0.511499       -13.9186
  26   1.0000      -0.478548       -13.0220
  27   1.0000      -0.459844       -12.5130
  28   1.0000      -0.458166       -12.4673
  29   1.0000      -0.447489       -12.1768
  30   1.0000      -0.441812       -12.0223
  31   1.0000      -0.441779       -12.0214
  32   1.0000      -0.433982       -11.8092
  33   1.0000      -0.427890       -11.6435
  34   1.0000      -0.405557       -11.0358
  35   1.0000      -0.393773       -10.7151
  36   1.0000      -0.387763       -10.5516
  37   1.0000      -0.381829       -10.3901
  38   1.0000      -0.368487       -10.0270
  39   1.0000      -0.365393        -9.9429
  40   1.0000      -0.305021        -8.3000
  41   1.0000      -0.302588        -8.2338
  42   1.0000      -0.251805        -6.8520
  43   0.0000      -0.096717        -2.6318
  44   0.0000      -0.034943        -0.9509
  45   0.0000      -0.019632        -0.5342
  46   0.0000      -0.000347        -0.0095
  47   0.0000       0.006084         0.1655

                 SPIN DOWN ORBITALS
  NO   OCC          E(Eh)            E(eV)
   0   1.0000     -10.288311      -279.9592
   1   1.0000     -10.288284      -279.9584
   2   1.0000     -10.277633      -279.6686
   3   1.0000     -10.277621      -279.6683
   4   1.0000     -10.264199      -279.3031
   5   1.0000     -10.264170      -279.3023
   6   1.0000     -10.262738      -279.2633
   7   1.0000     -10.262732      -279.2631
   8   1.0000     -10.262487      -279.2565
   9   1.0000     -10.262454      -279.2556
  10   1.0000     -10.232612      -278.4435
  11   1.0000     -10.232612      -278.4435
  12   1.0000      -0.922765       -25.1097
  13   1.0000      -0.869982       -23.6734
  14   1.0000      -0.837996       -22.8030
  15   1.0000      -0.805022       -21.9058
  16   1.0000      -0.797778       -21.7087
  17   1.0000      -0.749833       -20.4040
  18   1.0000      -0.700613       -19.0647
  19   1.0000      -0.665661       -18.1136
  20   1.0000      -0.638324       -17.3697
  21   1.0000      -0.600498       -16.3404
  22   1.0000      -0.583655       -15.8820
  23   1.0000      -0.550417       -14.9776
  24   1.0000      -0.520385       -14.1604
  25   1.0000      -0.509149       -13.8546
  26   1.0000      -0.476043       -12.9538
  27   1.0000      -0.459388       -12.5006
  28   1.0000      -0.456691       -12.4272
  29   1.0000      -0.439957       -11.9718
  30   1.0000      -0.435330       -11.8459
  31   1.0000      -0.432267       -11.7626
  32   1.0000      -0.431472       -11.7410
  33   1.0000      -0.416401       -11.3309
  34   1.0000      -0.403567       -10.9816
  35   1.0000      -0.392716       -10.6863
  36   1.0000      -0.386823       -10.5260
  37   1.0000      -0.380550       -10.3553
  38   1.0000      -0.363511        -9.8916
  39   1.0000      -0.350730        -9.5438
  40   1.0000      -0.300405        -8.1744
  41   1.0000      -0.280343        -7.6285
  42   0.0000      -0.177320        -4.8251
  43   0.0000      -0.071189        -1.9372
  44   0.0000      -0.025934        -0.7057
  45   0.0000      -0.004402        -0.1198
  46   0.0000       0.000047         0.0013

MULLIKEN ATOMIC CHARGES AND SPIN POPULATIONS
--------------------------------------------
   0 C :   -1.158266   -0.010036
   1 C :    1.688397    0.192394
   2 C :   -0.757978    0.012033
   3 C :   -1.152458   -0.009702
   4 C :    1.666162    0.192675
   5 C :   -0.731941    0.011807
   6 H :    0.220783   -0.001694
   7 C :    0.107154    0.010952
   8 C :   -0.361313    0.307253
   9 C :   -0.816865   -0.032035
  10 H :    0.241802    0.021305
  11 H :    0.288113   -0.005247
  12 H :    0.241703    0.021262
  13 H :    0.332804   -0.019791
  14 H :    0.240048    0.003723
  15 H :    0.230981   -0.000429
  16 H :    0.227829   -0.001512
  17 C :    0.087087    0.011216
  18 C :   -0.348998    0.307057
  19 C :   -0.844030   -0.031891
  20 H :    0.238435    0.021283
  21 H :    0.236291    0.021296
  22 H :    0.303026   -0.005276
  23 H :    0.369809   -0.020108
  24 H :    0.210513    0.003879
  25 H :    0.240913   -0.000412
Sum of atomic charges         :    1.0000000

LOEWDIN ATOMIC CHARGES AND SPIN POPULATIONS
-------------------------------------------
   0 C :    0.261177    0.035020
   1 C :   -0.091238    0.095740
   2 C :    0.264016    0.040827
   3 C :    0.261184    0.035021
   4 C :   -0.091258    0.095740
   5 C :    0.264027    0.040828
   6 H :   -0.160422    0.002484
   7 C :    0.261726    0.061189
   8 C :    0.272181    0.160060
   9 C :    0.592370    0.051873
  10 H :   -0.143329    0.011205
  11 H :   -0.157033    0.001124
  12 H :   -0.143265    0.011220
  13 H :   -0.154304    0.028383
  14 H :   -0.158230   -0.000742
  15 H :   -0.143640    0.001619
  16 H :   -0.160423    0.002484
  17 C :    0.261718    0.061189
  18 C :    0.272190    0.160059
  19 C :    0.592349    0.051873
  20 H :   -0.143325    0.011209
  21 H :   -0.143278    0.011215
  22 H :   -0.157011    0.001124
  23 H :   -0.154295    0.028382
  24 H :   -0.158245   -0.000742
  25 H :   -0.143640    0.001619

  Mayer bond orders larger than 0.100000
B(  0-C ,  1-C ) :   0.1868 B(  0-C ,  2-C ) :  -0.4997 B(  0-C ,  3-C ) :   0.3212
B(  0-C ,  5-C ) :   1.3400 B(  0-C , 17-C ) :  -0.1569 B(  0-C , 25-H ) :   1.1420
B(  1-C ,  2-C ) :   0.4701 B(  1-C ,  3-C ) :  -0.1005 B(  1-C ,  4-C ) :  -0.3665
B(  1-C ,  7-C ) :   0.3426 B(  1-C , 17-C ) :   0.5566 B(  1-C , 18-C ) :  -0.1654
B(  2-C ,  3-C ) :   1.3349 B(  2-C ,  5-C ) :  -0.2721 B(  2-C ,  6-H ) :  -0.1879
B(  2-C , 15-H ) :  -0.1249 B(  2-C , 16-H ) :   1.3098 B(  2-C , 17-C ) :   0.1596
B(  2-C , 18-C ) :   0.1584 B(  3-C ,  4-C ) :   0.2011 B(  3-C ,  5-C ) :  -0.4919
B(  3-C ,  7-C ) :  -0.1812 B(  3-C , 15-H ) :   1.1508 B(  3-C , 18-C ) :  -0.1217
B(  4-C ,  5-C ) :   0.4802 B(  4-C ,  7-C ) :   0.6053 B(  4-C ,  8-C ) :  -0.1559
B(  4-C , 17-C ) :   0.2804 B(  5-C ,  6-H ) :   1.3106 B(  5-C ,  7-C ) :   0.1607
B(  5-C ,  8-C ) :   0.1236 B(  5-C , 15-H ) :   0.1117 B(  5-C , 16-H ) :  -0.2104
B(  5-C , 25-H ) :  -0.1191 B(  6-H , 15-H ) :   0.1419 B(  7-C ,  8-C ) :   0.9131
B(  7-C , 14-H ) :   0.9839 B(  7-C , 17-C ) :   0.1163 B(  8-C ,  9-C ) :   0.8417
B(  8-C , 13-H ) :   1.0199 B(  8-C , 18-C ) :   0.1899 B(  9-C , 10-H ) :   0.9584
B(  9-C , 11-H ) :   0.9064 B(  9-C , 12-H ) :   0.9560 B(  9-C , 13-H ) :  -0.1100
B( 16-H , 25-H ) :   0.1312 B( 17-C , 18-C ) :   0.9493 B( 17-C , 24-H ) :   1.0120
B( 17-C , 25-H ) :  -0.1032 B( 18-C , 19-C ) :   0.8690 B( 18-C , 23-H ) :   0.9665
B( 19-C , 20-H ) :   0.9615 B( 19-C , 21-H ) :   0.9660 B( 19-C , 22-H ) :   0.8873
B( 19-C , 23-H ) :  -0.1342

Dispersion correction           -0.023307623
FINAL SINGLE POINT ENERGY      -465.109475137456

DIPOLE MOMENT
-------------

Method             : SCF
Type of density    : Electron Density
Multiplicity       :   2
Irrep              :   0
Energy             :  -465.0861675149541270 Eh
Relativity type    :
Basis              : AO
                                X                 Y                 Z
Electronic contribution:     -0.000021424       0.000044147      -0.000109199
Nuclear contribution   :     -0.000009580      -0.000053351       0.000182982
                        -----------------------------------------
Total Dipole Moment    :     -0.000031004      -0.000009204       0.000073784
                        -----------------------------------------
Magnitude (a.u.)       :      0.000080560
Magnitude (Debye)      :      0.000204768

Rotational constants in cm-1:             0.145084             0.011081             0.010334
Rotational constants in MHz :          4349.508816           332.191507           309.803376

                             ****ORCA TERMINATED NORMALLY****
TOTAL RUN TIME: 0 days 0 hours 15 minutes 42 seconds 895 msec
