                         Program Version 6.0.0  -   RELEASE  -
|  1> !TPSSh opt aug-cc-pVTZ d3 TightSCF SlowConv RIJCOSX defgrid2
|  2>
|  3> %pal
|  4> nprocs 8
|  5> end
|  6>
|  7> %scf
|  8> MaxIter 1500
|  9> end
| 10>
| 11> %maxcore 3500
| 12>
| 13> !CPCM
| 14> %cpcm smd true
| 15> SMDsolvent "MeCN"
| 16> surfacetype gepol_ses
| 17> rsolv 2.19
| 18> end
| 19>
| 20> * xyz 0 1
| 21> C           2.43031351008729     -0.70749139029856      0.00001403239272
| 22> C           2.43032444825569      0.70745716976960      0.00001780057511
| 23> C           1.24225650957686      1.40066986227340      0.00001298600543
| 24> C           0.00000747832604      0.71479447718917      0.00000542687051
| 25> C          -1.24223111805275      1.40068893561610      0.00000324875952
| 26> C          -2.43030983452578      0.70749421287076     -0.00000358520312
| 27> C          -2.43032103578901     -0.70745426001962     -0.00000960120256
| 28> C          -1.24225352108494     -1.40066808823521     -0.00000641420954
| 29> C          -0.00000405709778     -0.71479302978643      0.00000150500237
| 30> C           1.24223524877496     -1.40068686163162      0.00000460886950
| 31> H           1.23824372924118     -2.49527550154318      0.00000243863973
| 32> H          -1.23827753101703     -2.49525698617010     -0.00000852848414
| 33> H          -3.38175156931066     -1.24754932619836     -0.00001429910497
| 34> H          -3.38173131512848      1.24760412689582     -0.00000496639229
| 35> H          -1.23823830440863      2.49527781567030      0.00000665226192
| 36> H           1.23827983240145      2.49525951167016      0.00001366019695
| 37> H           3.38175416757919      1.24755290950869      0.00002330946105
| 38> H           3.38173466217241     -1.24760147758094      0.00001812556182
| 39> *
| 40>
| 41>                          ****END OF INPUT****
 Total Charge           Charge          ....    0
 Multiplicity           Mult            ....    1
 Number of Electrons    NEL             ....   68
Dispersion correction           -0.024703840
FINAL SINGLE POINT ENERGY      -386.088234772555
Dispersion correction             ... done (  0.0 sec)
Dispersion correction           -0.024751905
FINAL SINGLE POINT ENERGY      -386.088802554567
Dispersion correction             ... done (  0.1 sec)
                    ***********************HURRAY********************

CARTESIAN COORDINATES (ANGSTROEM)
---------------------------------
  C      2.425593   -0.706755   -0.000208
  C      2.425606    0.706721   -0.000186
  C      1.240219    1.400223   -0.000062
  C      0.000007    0.714791    0.000009
  C     -1.240193    1.400241    0.000081
  C     -2.425591    0.706757    0.000196
  C     -2.425600   -0.706719    0.000215
  C     -1.240213   -1.400219    0.000095
  C     -0.000004   -0.714785    0.000007
  C      1.240195   -1.400238   -0.000088
  H      1.237266   -2.484509    0.000032
  H     -1.237304   -2.484493   -0.000039
  H     -3.367897   -1.241245   -0.000171
  H     -3.367880    1.241296   -0.000195
  H     -1.237266    2.484512   -0.000055
  H      1.237308    2.484496    0.000080
  H      3.367904    1.241248    0.000201
  H      3.367880   -1.241300    0.000163

 Multiplicity           Mult            ....    1
 Number of Electrons    NEL             ....   68
 Basis Dimension        Dim             ....  644

ORBITAL ENERGIES
----------------

  NO   OCC          E(Eh)            E(eV)
   0   2.0000     -10.126238      -275.5490
   1   2.0000     -10.125861      -275.5387
   2   2.0000     -10.116438      -275.2823
   3   2.0000     -10.116429      -275.2820
   4   2.0000     -10.116359      -275.2801
   5   2.0000     -10.116352      -275.2799
   6   2.0000     -10.115806      -275.2651
   7   2.0000     -10.115805      -275.2651
   8   2.0000     -10.115477      -275.2561
   9   2.0000     -10.115471      -275.2560
  10   2.0000      -0.855883       -23.2898
  11   2.0000      -0.802416       -21.8348
  12   2.0000      -0.754972       -20.5438
  13   2.0000      -0.722050       -19.6480
  14   2.0000      -0.700170       -19.0526
  15   2.0000      -0.606974       -16.5166
  16   2.0000      -0.592331       -16.1181
  17   2.0000      -0.577295       -15.7090
  18   2.0000      -0.495922       -13.4947
  19   2.0000      -0.491452       -13.3731
  20   2.0000      -0.474112       -12.9013
  21   2.0000      -0.428514       -11.6605
  22   2.0000      -0.421337       -11.4652
  23   2.0000      -0.398161       -10.8345
  24   2.0000      -0.396136       -10.7794
  25   2.0000      -0.382857       -10.4181
  26   2.0000      -0.380486       -10.3536
  27   2.0000      -0.349656        -9.5146
  28   2.0000      -0.320615        -8.7244
  29   2.0000      -0.318715        -8.6727
  30   2.0000      -0.311515        -8.4768
  31   2.0000      -0.280020        -7.6197
  32   2.0000      -0.241186        -6.5630
  33   2.0000      -0.213093        -5.7986
  34   0.0000      -0.058145        -1.5822
  35   0.0000      -0.030726        -0.8361
  36   0.0000      -0.002521        -0.0686
  37   0.0000      -0.000818        -0.0222
  38   0.0000       0.008825         0.2401

MULLIKEN ATOMIC CHARGES
-----------------------
   0 C :   -0.280094
   1 C :   -0.280632
   2 C :   -0.940767
   3 C :    1.433075
   4 C :   -0.941671
   5 C :   -0.278913
   6 C :   -0.281993
   7 C :   -0.933061
   8 C :    1.432318
   9 C :   -0.936884
  10 H :   -0.066069
  11 H :   -0.061996
  12 H :    0.564841
  13 H :    0.567100
  14 H :   -0.064027
  15 H :   -0.065313
  16 H :    0.570258
  17 H :    0.563828
Sum of atomic charges:   -0.0000000

LOEWDIN ATOMIC CHARGES
----------------------
   0 C :    0.200686
   1 C :    0.200685
   2 C :    0.216592
   3 C :   -0.128796
   4 C :    0.216593
   5 C :    0.200686
   6 C :    0.200685
   7 C :    0.216593
   8 C :   -0.128796
   9 C :    0.216594
  10 H :   -0.172759
  11 H :   -0.172754
  12 H :   -0.180125
  13 H :   -0.180123
  14 H :   -0.172758
  15 H :   -0.172757
  16 H :   -0.180123
  17 H :   -0.180124

  Mayer bond orders larger than 0.100000
B(  0-C ,  1-C ) :   1.2678 B(  0-C ,  3-C ) :  -0.1902 B(  0-C ,  9-C ) :   1.4563
B(  0-C , 16-H ) :   0.1509 B(  0-C , 17-H ) :   0.3239 B(  1-C ,  2-C ) :   1.4596
B(  1-C ,  8-C ) :  -0.1928 B(  1-C , 16-H ) :   0.3169 B(  1-C , 17-H ) :   0.1508
B(  2-C ,  4-C ) :   0.4611 B(  2-C ,  8-C ) :  -0.1831 B(  2-C , 15-H ) :   1.2757
B(  2-C , 16-H ) :  -0.1410 B(  3-C ,  6-C ) :  -0.1946 B(  3-C ,  7-C ) :  -0.1799
B(  3-C ,  8-C ) :   1.0363 B(  3-C ,  9-C ) :  -0.1806 B(  3-C , 13-H ) :   0.1050
B(  3-C , 16-H ) :   0.1014 B(  4-C ,  5-C ) :   1.4585 B(  4-C ,  8-C ) :  -0.1794
B(  4-C , 13-H ) :  -0.1401 B(  4-C , 14-H ) :   1.2718 B(  5-C ,  6-C ) :   1.2663
B(  5-C ,  8-C ) :  -0.1893 B(  5-C , 12-H ) :   0.1501 B(  5-C , 13-H ) :   0.3224
B(  6-C ,  7-C ) :   1.4578 B(  6-C , 12-H ) :   0.3203 B(  6-C , 13-H ) :   0.1523
B(  7-C ,  9-C ) :   0.4604 B(  7-C , 11-H ) :   1.2686 B(  7-C , 12-H ) :  -0.1381
B(  8-C , 17-H ) :   0.1010 B(  9-C , 10-H ) :   1.2743 B(  9-C , 17-H ) :  -0.1402
B( 10-H , 17-H ) :  -0.1003 B( 12-H , 13-H ) :   0.1196 B( 13-H , 14-H ) :  -0.1004
B( 15-H , 16-H ) :  -0.1022 B( 16-H , 17-H ) :   0.1201

Dispersion correction           -0.024754731
FINAL SINGLE POINT ENERGY      -386.088802679638

DIPOLE MOMENT
-------------

Method             : SCF
Type of density    : Electron Density
Multiplicity       :   1
Irrep              :   0
Energy             :  -386.0640479487618109 Eh
Relativity type    :
Basis              : AO
                                X                 Y                 Z
Electronic contribution:     -0.000001984       0.000005041       0.000017224
Nuclear contribution   :     -0.000003500      -0.000006721      -0.000027019
                        -----------------------------------------
Total Dipole Moment    :     -0.000005484      -0.000001681      -0.000009794
                        -----------------------------------------
Magnitude (a.u.)       :      0.000011350
Magnitude (Debye)      :      0.000028850

Rotational constants in cm-1:             0.104338             0.041270             0.029573
Rotational constants in MHz :          3127.959633          1237.246777           886.569299

                             ****ORCA TERMINATED NORMALLY****
TOTAL RUN TIME: 0 days 0 hours 12 minutes 43 seconds 44 msec
