                         Program Version 6.0.0  -   RELEASE  -
|  1> !B3LYP aug-cc-pVTZ d3 TightSCF SlowConv RIJCOSX defgrid2
|  2>
|  3> %pal
|  4> nprocs 4
|  5> end
|  6>
|  7> %scf
|  8> MaxIter 1500
|  9> end
| 10>
| 11> %maxcore 3000
| 12>
| 13> !CPCM
| 14> %cpcm smd true
| 15> SMDsolvent "MeCN"
| 16> surfacetype gepol_ses
| 17> rsolv 2.19
| 18> end
| 19>
| 20> * xyz 0 1
| 21> N           0.15975924296332      0.12445058338132      0.31604288059979
| 22> C          -1.19113288858807     -0.03866597413313      0.81654672996346
| 23> C          -2.31404669003534     -0.01392479742617     -0.22115980972317
| 24> H          -3.29712795220661     -0.11050189519336      0.27216270478690
| 25> H          -2.22374427381768     -0.84298980217516     -0.94495572722258
| 26> H          -2.31766293194652      0.93130971057126     -0.79241152719390
| 27> H          -1.24118777155842     -0.98367549326804      1.38531777446702
| 28> H          -1.36414427314090      0.76090167006913      1.55962872548440
| 29> C           0.62547089775175     -0.92869162394065     -0.56188129632475
| 30> C           0.59510137492734     -2.31310993961179      0.06527507131526
| 31> H          -0.43217334595978     -2.68538495815961      0.21937250172711
| 32> H           1.11073003856311     -3.03735318800821     -0.58821336851619
| 33> H           1.10594756855008     -2.30061285180890      1.04369021631712
| 34> H           0.06636480368987     -0.94738167933480     -1.52902550894480
| 35> H           1.66989109901219     -0.69687695874228     -0.82974302531472
| 36> C           0.44663628376999      1.45259534411955     -0.18717965378079
| 37> C           1.91168679391593      1.84575888559843     -0.05684387193733
| 38> H           2.57178979071434      1.21847816004489     -0.68008856196741
| 39> H           2.23976832497324      1.74559120055302      0.99176343824238
| 40> H           2.05890339514312      2.89253491311342     -0.37523787624847
| 41> H           0.12405895964874      1.58040814853664     -1.24813910560320
| 42> H          -0.15649294636972      2.16687674581443      0.40066148987389
| 43> *
| 44>
| 45>                          ****END OF INPUT****

CARTESIAN COORDINATES (ANGSTROEM)
---------------------------------
  N      0.159759    0.124451    0.316043
  C     -1.191133   -0.038666    0.816547
  C     -2.314047   -0.013925   -0.221160
  H     -3.297128   -0.110502    0.272163
  H     -2.223744   -0.842990   -0.944956
  H     -2.317663    0.931310   -0.792412
  H     -1.241188   -0.983675    1.385318
  H     -1.364144    0.760902    1.559629
  C      0.625471   -0.928692   -0.561881
  C      0.595101   -2.313110    0.065275
  H     -0.432173   -2.685385    0.219373
  H      1.110730   -3.037353   -0.588213
  H      1.105948   -2.300613    1.043690
  H      0.066365   -0.947382   -1.529026
  H      1.669891   -0.696877   -0.829743
  C      0.446636    1.452595   -0.187180
  C      1.911687    1.845759   -0.056844
  H      2.571790    1.218478   -0.680089
  H      2.239768    1.745591    0.991763
  H      2.058903    2.892535   -0.375238
  H      0.124059    1.580408   -1.248139
  H     -0.156493    2.166877    0.400661

 Total Charge           Charge          ....    0
 Multiplicity           Mult            ....    1
 Number of Electrons    NEL             ....   58
 Basis Dimension        Dim             ....  667

ORBITAL ENERGIES
----------------

  NO   OCC          E(Eh)            E(eV)
   0   2.0000     -14.295613      -389.0034
   1   2.0000     -10.183300      -277.1017
   2   2.0000     -10.182618      -277.0831
   3   2.0000     -10.182280      -277.0739
   4   2.0000     -10.153064      -276.2789
   5   2.0000     -10.151957      -276.2488
   6   2.0000     -10.150775      -276.2166
   7   2.0000      -0.917151       -24.9570
   8   2.0000      -0.752327       -20.4718
   9   2.0000      -0.746998       -20.3269
  10   2.0000      -0.695826       -18.9344
  11   2.0000      -0.625529       -17.0215
  12   2.0000      -0.608570       -16.5600
  13   2.0000      -0.539268       -14.6742
  14   2.0000      -0.480294       -13.0695
  15   2.0000      -0.466798       -12.7022
  16   2.0000      -0.444384       -12.0923
  17   2.0000      -0.428643       -11.6640
  18   2.0000      -0.403265       -10.9734
  19   2.0000      -0.390733       -10.6324
  20   2.0000      -0.382507       -10.4085
  21   2.0000      -0.367313        -9.9951
  22   2.0000      -0.360808        -9.8181
  23   2.0000      -0.352921        -9.6035
  24   2.0000      -0.340768        -9.2728
  25   2.0000      -0.332958        -9.0602
  26   2.0000      -0.323919        -8.8143
  27   2.0000      -0.312977        -8.5165
  28   2.0000      -0.203778        -5.5451
  29   0.0000      -0.001814        -0.0494
  30   0.0000       0.008847         0.2407
  31   0.0000       0.010373         0.2823
  32   0.0000       0.013786         0.3751
  33   0.0000       0.031364         0.8535

MULLIKEN ATOMIC CHARGES
-----------------------
   0 N :    0.002091
   1 C :   -0.221625
   2 C :   -0.739471
   3 H :    0.179865
   4 H :    0.225525
   5 H :    0.200934
   6 H :    0.116539
   7 H :    0.259059
   8 C :   -0.162208
   9 C :   -0.803540
  10 H :    0.259133
  11 H :    0.106480
  12 H :    0.200167
  13 H :    0.108413
  14 H :    0.382838
  15 C :   -0.302422
  16 C :   -0.859732
  17 H :    0.224265
  18 H :    0.183873
  19 H :    0.150906
  20 H :    0.162990
  21 H :    0.325918
Sum of atomic charges:   -0.0000000

LOEWDIN ATOMIC CHARGES
----------------------
   0 N :    0.266497
   1 C :    0.123564
   2 C :    0.569547
   3 H :   -0.158837
   4 H :   -0.166336
   5 H :   -0.160883
   6 H :   -0.155939
   7 H :   -0.139733
   8 C :    0.108303
   9 C :    0.564949
  10 H :   -0.169384
  11 H :   -0.156888
  12 H :   -0.153279
  13 H :   -0.125415
  14 H :   -0.161083
  15 C :    0.106156
  16 C :    0.569405
  17 H :   -0.175249
  18 H :   -0.158702
  19 H :   -0.159923
  20 H :   -0.122321
  21 H :   -0.144448

  Mayer bond orders larger than 0.100000
B(  0-N ,  1-C ) :   0.9110 B(  0-N ,  8-C ) :   0.7395 B(  0-N , 15-C ) :   0.9179
B(  1-C ,  2-C ) :   0.8010 B(  1-C ,  6-H ) :   1.0333 B(  1-C ,  7-H ) :   0.9014
B(  2-C ,  3-H ) :   0.9952 B(  2-C ,  4-H ) :   0.9664 B(  2-C ,  5-H ) :   0.9830
B(  8-C ,  9-C ) :   0.7980 B(  8-C , 13-H ) :   1.0393 B(  8-C , 14-H ) :   0.8137
B(  9-C , 10-H ) :   0.9233 B(  9-C , 11-H ) :   1.1174 B(  9-C , 12-H ) :   0.9915
B( 15-C , 16-C ) :   0.7725 B( 15-C , 20-H ) :   1.0042 B( 15-C , 21-H ) :   0.8507
B( 16-C , 17-H ) :   0.9910 B( 16-C , 18-H ) :   1.0157 B( 16-C , 19-H ) :   1.0568

Dispersion correction           -0.030676788
FINAL SINGLE POINT ENERGY      -292.351717931060

DIPOLE MOMENT
-------------

Method             : SCF
Type of density    : Electron Density
Multiplicity       :   1
Irrep              :   0
Energy             :  -292.3210411425971529 Eh
Relativity type    :
Basis              : AO
                                X                 Y                 Z
Electronic contribution:      0.275070152       0.537549002       1.014234837
Nuclear contribution   :     -0.501506717      -0.494754897      -1.261304975
                        -----------------------------------------
Total Dipole Moment    :     -0.226436565       0.042794105      -0.247070138
                        -----------------------------------------
Magnitude (a.u.)       :      0.337858708
Magnitude (Debye)      :      0.858768589

Rotational constants in cm-1:             0.094674             0.067966             0.045296
Rotational constants in MHz :          2838.248460          2037.567031          1357.933108

                             ****ORCA TERMINATED NORMALLY****
TOTAL RUN TIME: 0 days 0 hours 4 minutes 47 seconds 494 msec
