                         Program Version 6.0.0  -   RELEASE  -
|  1> !PBE0 def2-SV(p) Opt Freq d3 TightSCF SlowConv RIJCOSX defgrid2
|  2>
|  3> %pal
|  4> nprocs 4
|  5> end
|  6>
|  7> %scf
|  8> MaxIter 1500
|  9> end
| 10>
| 11> %maxcore 3000
| 12>
| 13>
| 14>
| 15> * xyz 1 2
| 16> C    -0.0062354    1.1355716   -0.0000400
| 17> C    -1.3597270    1.3575495   -0.0000432
| 18> C    -2.2627114    0.2811546   -0.0000138
| 19> C    -1.7944908   -1.0395923    0.0000142
| 20> C    -0.4475089   -1.2885389    0.0000179
| 21> C     0.4837467   -0.2009625   -0.0000093
| 22> O     1.7416591   -0.5433185   -0.0000072
| 23> C     2.8018546    0.3821790   -0.0000257
| 24> H     2.7712878    1.0200715   -0.8897275
| 25> H     2.7711926    1.0202405    0.8895497
| 26> H     3.7147639   -0.2123691    0.0000718
| 27> H    -0.0484433   -2.2910587    0.0000408
| 28> H    -2.4971849   -1.8579411    0.0000341
| 29> H    -3.3245267    0.4752291   -0.0000126
| 30> H    -1.7388321    2.3678175   -0.0000679
| 31> H     0.6787836    1.9691015   -0.0000653
| 32> *
| 33>
| 34>                          ****END OF INPUT****
 Total Charge           Charge          ....    1
 Multiplicity           Mult            ....    2
 Number of Electrons    NEL             ....   57
Dispersion correction           -0.012932912
FINAL SINGLE POINT ENERGY      -345.812990946934
Dispersion correction             ... done (  0.0 sec)
Dispersion correction           -0.012911395
FINAL SINGLE POINT ENERGY      -345.814750508227
Dispersion correction             ... done (  0.1 sec)
Dispersion correction           -0.012908997
FINAL SINGLE POINT ENERGY      -345.814899870893
Dispersion correction             ... done (  0.1 sec)
Dispersion correction           -0.012908931
FINAL SINGLE POINT ENERGY      -345.814944712302
Dispersion correction             ... done (  0.1 sec)
Dispersion correction           -0.012909643
FINAL SINGLE POINT ENERGY      -345.814950314665
Dispersion correction             ... done (  0.0 sec)
                    ***********************HURRAY********************

CARTESIAN COORDINATES (ANGSTROEM)
---------------------------------
  C      0.009524    1.143819   -0.000042
  C     -1.344058    1.368354   -0.000045
  C     -2.258037    0.279944   -0.000014
  C     -1.798939   -1.055037    0.000018
  C     -0.449669   -1.307171    0.000019
  C      0.477681   -0.207546   -0.000006
  O      1.727155   -0.545754    0.000001
  C      2.801345    0.401090   -0.000027
  H      2.750831    1.021482   -0.909363
  H      2.750762    1.021635    0.909200
  H      3.718745   -0.200348    0.000058
  H     -0.038378   -2.319942    0.000039
  H     -2.515647   -1.880325    0.000039
  H     -3.332911    0.483850   -0.000022
  H     -1.727624    2.392293   -0.000073
  H      0.712847    1.978789   -0.000066

 Multiplicity           Mult            ....    2
 Number of Electrons    NEL             ....   57
 Basis Dimension        Dim             ....  128

ORBITAL ENERGIES
----------------
                 SPIN UP ORBITALS
  NO   OCC          E(Eh)            E(eV)
   0   1.0000     -19.492362      -530.4141
   1   1.0000     -10.537986      -286.7532
   2   1.0000     -10.462868      -284.7091
   3   1.0000     -10.462824      -284.7079
   4   1.0000     -10.450940      -284.3845
   5   1.0000     -10.450344      -284.3683
   6   1.0000     -10.446447      -284.2623
   7   1.0000     -10.437079      -284.0074
   8   1.0000      -1.340293       -36.4712
   9   1.0000      -1.086882       -29.5756
  10   1.0000      -0.991630       -26.9836
  11   1.0000      -0.977017       -26.5860
  12   1.0000      -0.918504       -24.9938
  13   1.0000      -0.835401       -22.7324
  14   1.0000      -0.807051       -21.9610
  15   1.0000      -0.759006       -20.6536
  16   1.0000      -0.711842       -19.3702
  17   1.0000      -0.711410       -19.3584
  18   1.0000      -0.707266       -19.2457
  19   1.0000      -0.653422       -17.7805
  20   1.0000      -0.643438       -17.5088
  21   1.0000      -0.629849       -17.1391
  22   1.0000      -0.605501       -16.4765
  23   1.0000      -0.582700       -15.8561
  24   1.0000      -0.575781       -15.6678
  25   1.0000      -0.559206       -15.2168
  26   1.0000      -0.541448       -14.7335
  27   1.0000      -0.480874       -13.0852
  28   1.0000      -0.458575       -12.4785
  29   0.0000      -0.218324        -5.9409
  30   0.0000      -0.204443        -5.5632
  31   0.0000      -0.092404        -2.5144
  32   0.0000      -0.072839        -1.9820
  33   0.0000      -0.057633        -1.5683

                 SPIN DOWN ORBITALS
  NO   OCC          E(Eh)            E(eV)
   0   1.0000     -19.484732      -530.2065
   1   1.0000     -10.535542      -286.6867
   2   1.0000     -10.463112      -284.7157
   3   1.0000     -10.455831      -284.5176
   4   1.0000     -10.448335      -284.3136
   5   1.0000     -10.447339      -284.2866
   6   1.0000     -10.447233      -284.2837
   7   1.0000     -10.439155      -284.0638
   8   1.0000      -1.326549       -36.0972
   9   1.0000      -1.077814       -29.3288
  10   1.0000      -0.983837       -26.7716
  11   1.0000      -0.972336       -26.4586
  12   1.0000      -0.908811       -24.7300
  13   1.0000      -0.830303       -22.5937
  14   1.0000      -0.801660       -21.8143
  15   1.0000      -0.755369       -20.5546
  16   1.0000      -0.708287       -19.2735
  17   1.0000      -0.702419       -19.1138
  18   1.0000      -0.684025       -18.6133
  19   1.0000      -0.651305       -17.7229
  20   1.0000      -0.641668       -17.4607
  21   1.0000      -0.627002       -17.0616
  22   1.0000      -0.588119       -16.0035
  23   1.0000      -0.580189       -15.7877
  24   1.0000      -0.573439       -15.6041
  25   1.0000      -0.537289       -14.6204
  26   1.0000      -0.529063       -14.3965
  27   1.0000      -0.473008       -12.8712
  28   0.0000      -0.357000        -9.7145
  29   0.0000      -0.191918        -5.2224
  30   0.0000      -0.180668        -4.9162
  31   0.0000      -0.090884        -2.4731
  32   0.0000      -0.071214        -1.9378

MULLIKEN ATOMIC CHARGES AND SPIN POPULATIONS
--------------------------------------------
   0 C :   -0.137255    0.143330
   1 C :   -0.062599   -0.075538
   2 C :   -0.011523    0.483315
   3 C :   -0.076257   -0.168014
   4 C :   -0.052533    0.245051
   5 C :    0.245588    0.164445
   6 O :   -0.201097    0.230250
   7 C :   -0.204038   -0.017899
   8 H :    0.197749    0.016331
   9 H :    0.197746    0.016329
  10 H :    0.217519    0.000013
  11 H :    0.177703   -0.012687
  12 H :    0.179734    0.005355
  13 H :    0.186073   -0.023404
  14 H :    0.179125    0.001393
  15 H :    0.164066   -0.008271
Sum of atomic charges         :    1.0000000

LOEWDIN ATOMIC CHARGES AND SPIN POPULATIONS
-------------------------------------------
   0 C :   -0.112949    0.128568
   1 C :   -0.060867   -0.022475
   2 C :    0.009096    0.389398
   3 C :   -0.085745   -0.089731
   4 C :   -0.055480    0.204869
   5 C :    0.115396    0.157408
   6 O :    0.045676    0.234462
   7 C :   -0.186022   -0.007078
   8 H :    0.152083    0.012070
   9 H :    0.152080    0.012068
  10 H :    0.164107   -0.000022
  11 H :    0.177543   -0.006691
  12 H :    0.172396    0.002591
  13 H :    0.172988   -0.011737
  14 H :    0.171811    0.000642
  15 H :    0.167886   -0.004341

  Mayer bond orders larger than 0.100000
B(  0-C ,  1-C ) :   1.5412 B(  0-C ,  5-C ) :   1.1606 B(  0-C , 15-H ) :   0.9482
B(  1-C ,  2-C ) :   1.2406 B(  1-C , 14-H ) :   0.9448 B(  2-C ,  3-C ) :   1.2707
B(  2-C , 13-H ) :   0.9448 B(  3-C ,  4-C ) :   1.5024 B(  3-C , 12-H ) :   0.9488
B(  4-C ,  5-C ) :   1.1834 B(  4-C , 11-H ) :   0.9483 B(  5-C ,  6-O ) :   1.3669
B(  6-O ,  7-C ) :   0.8491 B(  7-C ,  8-H ) :   0.9292 B(  7-C ,  9-H ) :   0.9292
B(  7-C , 10-H ) :   0.9386

Dispersion correction           -0.012910146
FINAL SINGLE POINT ENERGY      -345.814950925929

DIPOLE MOMENT
-------------

Method             : SCF
Type of density    : Electron Density
Multiplicity       :   2
Irrep              :   0
Energy             :  -345.8020407796976770 Eh
Relativity type    :
Basis              : AO
                                X                 Y                 Z
Electronic contribution:     -2.195868743      -1.748119466       0.000064469
Nuclear contribution   :      2.256738866       2.246354274      -0.000083298
                        -----------------------------------------
Total Dipole Moment    :      0.060870122       0.498234808      -0.000018829
                        -----------------------------------------
Magnitude (a.u.)       :      0.501939335
Magnitude (Debye)      :      1.275828397

VIBRATIONAL FREQUENCIES
-----------------------

Scaling factor for frequencies =  1.000000000  (already applied!)

     0:       0.00 cm**-1
     1:       0.00 cm**-1
     2:       0.00 cm**-1
     3:       0.00 cm**-1
     4:       0.00 cm**-1
     5:       0.00 cm**-1
     6:     118.38 cm**-1
     7:     157.41 cm**-1
     8:     237.83 cm**-1
     9:     244.10 cm**-1
    10:     382.21 cm**-1
    11:     445.78 cm**-1
    12:     459.26 cm**-1
    13:     548.34 cm**-1
    14:     577.85 cm**-1
    15:     637.69 cm**-1
    16:     798.89 cm**-1
    17:     801.40 cm**-1
    18:     817.63 cm**-1
    19:     954.28 cm**-1
    20:     991.83 cm**-1
    21:    1012.38 cm**-1
    22:    1017.33 cm**-1
    23:    1033.03 cm**-1
    24:    1034.07 cm**-1
    25:    1115.81 cm**-1
    26:    1151.55 cm**-1
    27:    1162.77 cm**-1
    28:    1196.91 cm**-1
    29:    1199.46 cm**-1
    30:    1329.54 cm**-1
    31:    1401.06 cm**-1
    32:    1433.38 cm**-1
    33:    1450.19 cm**-1
    34:    1467.82 cm**-1
    35:    1475.86 cm**-1
    36:    1479.84 cm**-1
    37:    1562.22 cm**-1
    38:    1571.41 cm**-1
    39:    1681.75 cm**-1
    40:    3067.72 cm**-1
    41:    3177.27 cm**-1
    42:    3226.44 cm**-1
    43:    3227.50 cm**-1
    44:    3233.72 cm**-1
    45:    3238.11 cm**-1
    46:    3245.84 cm**-1
    47:    3249.12 cm**-1

IR SPECTRUM
-----------

 Mode   freq       eps      Int      T**2         TX        TY        TZ
       cm**-1   L/(mol*cm) km/mol    a.u.
----------------------------------------------------------------------------
  6:    118.38   0.000533    2.69  0.001405  ( 0.000002  0.000000  0.037488)
  7:    157.41   0.000159    0.81  0.000316  ( 0.000007 -0.000002 -0.017774)
  8:    237.83   0.000404    2.04  0.000530  ( 0.000021 -0.000009  0.023016)
  9:    244.10   0.000855    4.32  0.001093  ( 0.030674 -0.012340 -0.000012)
 10:    382.21   0.000064    0.32  0.000052  ( 0.000009 -0.000003  0.007236)
 11:    445.78   0.000572    2.89  0.000400  ( 0.019847  0.002503 -0.000001)
 12:    459.26   0.000021    0.11  0.000014  (-0.000008  0.000002 -0.003774)
 13:    548.34   0.001021    5.16  0.000581  ( 0.023566 -0.005054  0.000000)
 14:    577.85   0.000502    2.54  0.000271  (-0.009415  0.013506 -0.000001)
 15:    637.69   0.007152   36.14  0.003500  (-0.000000 -0.000002 -0.059162)
 16:    798.89   0.000830    4.19  0.000324  (-0.000000  0.000000  0.018007)
 17:    801.40   0.000628    3.17  0.000245  (-0.005272  0.014723 -0.000007)
 18:    817.63   0.008401   42.46  0.003206  (-0.000005  0.000001 -0.056625)
 19:    954.28   0.001661    8.39  0.000543  ( 0.000001  0.000001  0.023305)
 20:    991.83   0.000577    2.91  0.000181  (-0.007972 -0.010855  0.000003)
 21:   1012.38   0.003190   16.12  0.000983  ( 0.031295 -0.001966  0.000001)
 22:   1017.33   0.000000    0.00  0.000000  ( 0.000007 -0.000002  0.000054)
 23:   1033.03   0.000130    0.66  0.000039  ( 0.000017  0.000011 -0.006264)
 24:   1034.07   0.008982   45.39  0.002711  (-0.044535 -0.026970 -0.000001)
 25:   1115.81   0.003323   16.79  0.000929  (-0.014470 -0.026833  0.000002)
 26:   1151.55   0.000086    0.44  0.000023  ( 0.000002  0.000000  0.004832)
 27:   1162.77   0.000347    1.75  0.000093  ( 0.000379  0.009642  0.000000)
 28:   1196.91   0.000596    3.01  0.000155  ( 0.011952  0.003543  0.000000)
 29:   1199.46   0.000642    3.24  0.000167  (-0.012094  0.004556  0.000000)
 30:   1329.54   0.000145    0.73  0.000034  ( 0.003444 -0.004714 -0.000000)
 31:   1401.06   0.005835   29.49  0.001300  ( 0.035971  0.002393  0.000001)
 32:   1433.38   0.000918    4.64  0.000200  (-0.000476  0.014129 -0.000000)
 33:   1450.19   0.014201   71.76  0.003056  (-0.046237  0.030297 -0.000003)
 34:   1467.82   0.001816    9.18  0.000386  ( 0.004249 -0.019183 -0.000002)
 35:   1475.86   0.001343    6.79  0.000284  (-0.015375 -0.006897 -0.000003)
 36:   1479.84   0.005148   26.01  0.001085  (-0.000007  0.000002  0.032947)
 37:   1562.22   0.037533  189.68  0.007497  ( 0.086417  0.005438 -0.000000)
 38:   1571.41   0.020852  105.38  0.004141  ( 0.056427 -0.030935  0.000001)
 39:   1681.75   0.000499    2.52  0.000093  ( 0.007866 -0.005538  0.000000)
 40:   3067.72   0.000072    0.36  0.000007  (-0.000866  0.002563  0.000000)
 41:   3177.27   0.000001    0.00  0.000000  (-0.000002 -0.000001  0.000303)
 42:   3226.44   0.000122    0.61  0.000012  (-0.000481 -0.003397  0.000000)
 43:   3227.50   0.000371    1.88  0.000036  (-0.001771 -0.005724  0.000001)
 44:   3233.72   0.000025    0.13  0.000002  (-0.001533  0.000260 -0.000000)
 45:   3238.11   0.001453    7.34  0.000140  (-0.009210  0.007428 -0.000000)
 46:   3245.84   0.003334   16.85  0.000321  (-0.006519 -0.016675  0.000000)
 47:   3249.12   0.001053    5.32  0.000101  (-0.002151  0.009824 -0.000000)

--------------------------
THERMOCHEMISTRY AT 298.15K
--------------------------

Temperature         ...   298.15 K
Pressure            ...     1.00 atm
Total Mass          ...   108.14 AMU
Quasi RRHO          ...     True
Cut-Off Frequency   ...     1.00 cm^-1

Throughout the following assumptions are being made:
  (1) The electronic state is orbitally nondegenerate
      but the spin degeneracy is treated
  (2) There are no thermally accessible electronically excited states
  (3) Hindered rotations indicated by low frequency modes are not
      treated as such but are treated as vibrations and this may
      cause some error
  (4) All equations used are the standard statistical mechanics
      equations for an ideal gas
  (5) All vibrations are strictly harmonic

freq.     118.38  E(vib)   ...       0.44
freq.     157.41  E(vib)   ...       0.40
freq.     237.83  E(vib)   ...       0.32
freq.     244.10  E(vib)   ...       0.31
freq.     382.21  E(vib)   ...       0.21
freq.     445.78  E(vib)   ...       0.17
freq.     459.26  E(vib)   ...       0.16
freq.     548.34  E(vib)   ...       0.12
freq.     577.85  E(vib)   ...       0.11
freq.     637.69  E(vib)   ...       0.09
freq.     798.89  E(vib)   ...       0.05
freq.     801.40  E(vib)   ...       0.05
freq.     817.63  E(vib)   ...       0.05
freq.     954.28  E(vib)   ...       0.03
freq.     991.83  E(vib)   ...       0.02
freq.    1012.38  E(vib)   ...       0.02
freq.    1017.33  E(vib)   ...       0.02
freq.    1033.03  E(vib)   ...       0.02
freq.    1034.07  E(vib)   ...       0.02
freq.    1115.81  E(vib)   ...       0.01
freq.    1151.55  E(vib)   ...       0.01
freq.    1162.77  E(vib)   ...       0.01
freq.    1196.91  E(vib)   ...       0.01
freq.    1199.46  E(vib)   ...       0.01
freq.    1329.54  E(vib)   ...       0.01
freq.    1401.06  E(vib)   ...       0.00
freq.    1433.38  E(vib)   ...       0.00
freq.    1450.19  E(vib)   ...       0.00
freq.    1467.82  E(vib)   ...       0.00
freq.    1475.86  E(vib)   ...       0.00
freq.    1479.84  E(vib)   ...       0.00
freq.    1562.22  E(vib)   ...       0.00
freq.    1571.41  E(vib)   ...       0.00
freq.    1681.75  E(vib)   ...       0.00
freq.    3067.72  E(vib)   ...       0.00
freq.    3177.27  E(vib)   ...       0.00
freq.    3226.44  E(vib)   ...       0.00
freq.    3227.50  E(vib)   ...       0.00
freq.    3233.72  E(vib)   ...       0.00
freq.    3238.11  E(vib)   ...       0.00
freq.    3245.84  E(vib)   ...       0.00
freq.    3249.12  E(vib)   ...       0.00

------------
INNER ENERGY
------------

The inner energy is: U= E(el) + E(ZPE) + E(vib) + E(rot) + E(trans)
    E(el)   - is the total energy from the electronic structure calculation
              = E(kin-el) + E(nuc-el) + E(el-el) + E(nuc-nuc)
    E(ZPE)  - the the zero temperature vibrational energy from the frequency calculation
    E(vib)  - the the finite temperature correction to E(ZPE) due to population
              of excited vibrational states
    E(rot)  - is the rotational thermal energy
    E(trans)- is the translational thermal energy

Summary of contributions to the inner energy U:
Electronic energy                ...   -345.81495093 Eh
Zero point energy                ...      0.13353485 Eh      83.79 kcal/mol
Thermal vibrational correction   ...      0.00428300 Eh       2.69 kcal/mol
Thermal rotational correction    ...      0.00141627 Eh       0.89 kcal/mol
Thermal translational correction ...      0.00141627 Eh       0.89 kcal/mol
-----------------------------------------------------------------------
Total thermal energy                   -345.67430054 Eh

Summary of corrections to the electronic energy:
(perhaps to be used in another calculation)
Total thermal correction                  0.00711554 Eh       4.47 kcal/mol
Non-thermal (ZPE) correction              0.13353485 Eh      83.79 kcal/mol
-----------------------------------------------------------------------
Total correction                          0.14065039 Eh      88.26 kcal/mol

--------
ENTHALPY
--------

The enthalpy is H = U + kB*T
                kB is Boltzmann's constant
Total thermal energy              ...   -345.67430054 Eh
Thermal Enthalpy correction       ...      0.00094421 Eh       0.59 kcal/mol
-----------------------------------------------------------------------
Total Enthalpy                    ...   -345.67335633 Eh

Note: Only C1 symmetry has been detected, increase convergence thresholds
      if your molecule has a higher symmetry. Symmetry factor of 1.0 is
      used for the rotational entropy correction.

Note: Rotational entropy computed according to Herzberg
Infrared and Raman Spectra, Chapter V,1, Van Nostrand Reinhold, 1945
Point Group:  C1, Symmetry Number:   1
Rotational constants in cm-1:     0.163746     0.052523     0.040083

Vibrational entropy computed according to the QRRHO of S. Grimme
Chem.Eur.J. 2012 18 9955 using a reference frequency of 100.0 cm-1

-------
ENTROPY
-------

The entropy contributions are T*S = T*(S(el)+S(vib)+S(rot)+S(trans))
     S(el)   - electronic entropy
     S(vib)  - vibrational entropy
     S(rot)  - rotational entropy
     S(trans)- translational entropy
The entropies will be listed as multiplied by the temperature to get
units of energy

Electronic entropy                ...      0.00065446 Eh      0.41 kcal/mol
Vibrational entropy               ...      0.00698906 Eh      4.39 kcal/mol
Rotational entropy                ...      0.01327467 Eh      8.33 kcal/mol
Translational entropy             ...      0.01898207 Eh     11.91 kcal/mol
-----------------------------------------------------------------------
Final entropy term                ...      0.03990026 Eh     25.04 kcal/mol

In case the symmetry of your molecule has not been determined correctly
or in case you have a reason to use a different symmetry number we print
out the resulting rotational entropy values for sn=1,12:

 non-linear molecules -----------------------------------
|  sn= 1 | S(rot)=       0.01327467 Eh      8.33 kcal/mol|
|  sn= 2 | S(rot)=       0.01262021 Eh      7.92 kcal/mol|
|  sn= 3 | S(rot)=       0.01223738 Eh      7.68 kcal/mol|
|  sn= 4 | S(rot)=       0.01196575 Eh      7.51 kcal/mol|
|  sn= 5 | S(rot)=       0.01175507 Eh      7.38 kcal/mol|
|  sn= 6 | S(rot)=       0.01158292 Eh      7.27 kcal/mol|
|  sn= 7 | S(rot)=       0.01143737 Eh      7.18 kcal/mol|
|  sn= 8 | S(rot)=       0.01131130 Eh      7.10 kcal/mol|
|  sn= 9 | S(rot)=       0.01120009 Eh      7.03 kcal/mol|
|  sn=10 | S(rot)=       0.01110061 Eh      6.97 kcal/mol|
|  sn=11 | S(rot)=       0.01101062 Eh      6.91 kcal/mol|
|  sn=12 | S(rot)=       0.01092846 Eh      6.86 kcal/mol|
 linear molecules ---------------------------------------
|  Dinfh | S(rot)=       0.00836306 Eh      5.25 kcal/mol|
|  Cinfv | S(rot)=       0.00901751 Eh      5.66 kcal/mol|
 --------------------------------------------------------

                             ****ORCA TERMINATED NORMALLY****
TOTAL RUN TIME: 0 days 0 hours 8 minutes 6 seconds 940 msec
