                         Program Version 6.0.0  -   RELEASE  -
|  1> !r2SCANh aug-cc-pVTZ d3 TightSCF SlowConv RIJCOSX defgrid2
|  2>
|  3> %pal
|  4> nprocs 4
|  5> end
|  6>
|  7> %scf
|  8> MaxIter 1500
|  9> end
| 10>
| 11> %maxcore 3000
| 12>
| 13> !CPCM
| 14> %cpcm smd true
| 15> SMDsolvent "MeCN"
| 16> surfacetype gepol_ses
| 17> rsolv 2.19
| 18> end
| 19>
| 20> * xyz 1 2
| 21> C           1.84281234672153     -0.00006597869847      0.01285546623039
| 22> C           1.14355368564506     -1.23902490190253      0.00158488089103
| 23> C          -0.22635786234437     -1.24013111711704     -0.01699413586169
| 24> C          -0.95506719113591     -0.00029607647166     -0.02822657050256
| 25> C          -2.42493771335276     -0.00015694603531     -0.01540251479795
| 26> H          -2.85288988584861      0.90688759110700     -0.47308067341050
| 27> H          -2.85357110348468     -0.91037144459146     -0.46576655952987
| 28> H          -2.75683389603493      0.00504463864823      1.05046901822320
| 29> C          -0.22649470626097      1.23969602067318     -0.01458794729593
| 30> C           1.14339815090709      1.23878434923716      0.00398375524291
| 31> H           1.70466297579754      2.17704577622432      0.01138483317017
| 32> H          -0.78522490872320      2.18007136225477     -0.02327385957075
| 33> H          -0.78496408789097     -2.18055191214167     -0.02751919353185
| 34> H           1.70496196149810     -2.17721430622763      0.00716529435102
| 35> H           2.93762583450709      0.00000044504112      0.02964230639238
| 36> *
| 37>
| 38>                          ****END OF INPUT****

CARTESIAN COORDINATES (ANGSTROEM)
---------------------------------
  C      1.842812   -0.000066    0.012855
  C      1.143554   -1.239025    0.001585
  C     -0.226358   -1.240131   -0.016994
  C     -0.955067   -0.000296   -0.028227
  C     -2.424938   -0.000157   -0.015403
  H     -2.852890    0.906888   -0.473081
  H     -2.853571   -0.910371   -0.465767
  H     -2.756834    0.005045    1.050469
  C     -0.226495    1.239696   -0.014588
  C      1.143398    1.238784    0.003984
  H      1.704663    2.177046    0.011385
  H     -0.785225    2.180071   -0.023274
  H     -0.784964   -2.180552   -0.027519
  H      1.704962   -2.177214    0.007165
  H      2.937626    0.000000    0.029642

 Total Charge           Charge          ....    1
 Multiplicity           Mult            ....    2
 Number of Electrons    NEL             ....   49
 Basis Dimension        Dim             ....  506

ORBITAL ENERGIES
----------------
                 SPIN UP ORBITALS
  NO   OCC          E(Eh)            E(eV)
   0   1.0000     -10.259198      -279.1670
   1   1.0000     -10.239781      -278.6386
   2   1.0000     -10.213109      -277.9128
   3   1.0000     -10.213052      -277.9113
   4   1.0000     -10.208647      -277.7914
   5   1.0000     -10.208582      -277.7896
   6   1.0000     -10.178436      -276.9693
   7   1.0000      -0.913005       -24.8441
   8   1.0000      -0.824673       -22.4405
   9   1.0000      -0.795117       -21.6362
  10   1.0000      -0.721845       -19.6424
  11   1.0000      -0.642562       -17.4850
  12   1.0000      -0.623286       -16.9605
  13   1.0000      -0.538726       -14.6595
  14   1.0000      -0.498585       -13.5672
  15   1.0000      -0.481271       -13.0961
  16   1.0000      -0.453132       -12.3303
  17   1.0000      -0.451911       -12.2971
  18   1.0000      -0.436373       -11.8743
  19   1.0000      -0.401319       -10.9204
  20   1.0000      -0.397095       -10.8055
  21   1.0000      -0.376623       -10.2484
  22   1.0000      -0.363440        -9.8897
  23   1.0000      -0.302888        -8.2420
  24   1.0000      -0.300711        -8.1828
  25   0.0000      -0.094725        -2.5776
  26   0.0000      -0.063637        -1.7316
  27   0.0000       0.009227         0.2511
  28   0.0000       0.023401         0.6368
  29   0.0000       0.026866         0.7311

                 SPIN DOWN ORBITALS
  NO   OCC          E(Eh)            E(eV)
   0   1.0000     -10.252314      -278.9796
   1   1.0000     -10.231700      -278.4187
   2   1.0000     -10.211504      -277.8691
   3   1.0000     -10.211463      -277.8680
   4   1.0000     -10.209416      -277.8123
   5   1.0000     -10.209365      -277.8109
   6   1.0000     -10.178304      -276.9657
   7   1.0000      -0.900213       -24.4960
   8   1.0000      -0.808197       -21.9922
   9   1.0000      -0.793414       -21.5899
  10   1.0000      -0.711451       -19.3596
  11   1.0000      -0.637405       -17.3447
  12   1.0000      -0.613900       -16.7051
  13   1.0000      -0.536399       -14.5962
  14   1.0000      -0.495895       -13.4940
  15   1.0000      -0.476221       -12.9586
  16   1.0000      -0.451974       -12.2988
  17   1.0000      -0.432673       -11.7736
  18   1.0000      -0.429009       -11.6739
  19   1.0000      -0.399496       -10.8708
  20   1.0000      -0.375731       -10.2242
  21   1.0000      -0.372171       -10.1273
  22   1.0000      -0.360490        -9.8094
  23   1.0000      -0.295944        -8.0530
  24   0.0000      -0.222852        -6.0641
  25   0.0000      -0.050020        -1.3611
  26   0.0000      -0.044892        -1.2216
  27   0.0000       0.010859         0.2955
  28   0.0000       0.025362         0.6901

MULLIKEN ATOMIC CHARGES AND SPIN POPULATIONS
--------------------------------------------
   0 C :   -0.166763    0.431234
   1 C :   -0.450886   -0.058022
   2 C :   -0.734951    0.097384
   3 C :    1.389599    0.438245
   4 C :   -0.613437   -0.073784
   5 H :    0.222380    0.005308
   6 H :    0.221619    0.004783
   7 H :    0.297963    0.070105
   8 C :   -0.736441    0.098617
   9 C :   -0.451747   -0.058985
  10 H :    0.521581   -0.000547
  11 H :    0.256937    0.012499
  12 H :    0.254266    0.012119
  13 H :    0.523730   -0.000408
  14 H :    0.466150    0.021453
Sum of atomic charges         :    1.0000000

LOEWDIN ATOMIC CHARGES AND SPIN POPULATIONS
-------------------------------------------
   0 C :    0.309299    0.236793
   1 C :    0.280229    0.064932
   2 C :    0.294076    0.099677
   3 C :   -0.036797    0.232629
   4 C :    0.639971    0.084263
   5 H :   -0.137256    0.008619
   6 H :   -0.137529    0.008403
   7 H :   -0.107881    0.030305
   8 C :    0.294033    0.099929
   9 C :    0.280163    0.064656
  10 H :   -0.140994   -0.001500
  11 H :   -0.135274    0.010702
  12 H :   -0.135395    0.010631
  13 H :   -0.140950   -0.001416
  14 H :   -0.125695    0.051377

  Mayer bond orders larger than 0.100000
B(  0-C ,  1-C ) :   0.9581 B(  0-C ,  9-C ) :   0.9566 B(  0-C , 14-H ) :   0.6722
B(  1-C ,  2-C ) :   1.4166 B(  1-C ,  3-C ) :   0.1009 B(  1-C ,  8-C ) :  -0.1033
B(  1-C , 13-H ) :   0.5178 B(  2-C ,  3-C ) :   0.4611 B(  2-C , 12-H ) :   0.9754
B(  3-C ,  4-C ) :   0.4881 B(  3-C ,  8-C ) :   0.4628 B(  3-C ,  9-C ) :   0.1011
B(  4-C ,  5-H ) :   0.9749 B(  4-C ,  6-H ) :   0.9761 B(  4-C ,  7-H ) :   0.8614
B(  8-C ,  9-C ) :   1.4178 B(  8-C , 11-H ) :   0.9699 B(  9-C , 10-H ) :   0.5209

Dispersion correction           -0.004215280
FINAL SINGLE POINT ENERGY      -271.262483638755

DIPOLE MOMENT
-------------

Method             : SCF
Type of density    : Electron Density
Multiplicity       :   2
Irrep              :   0
Energy             :  -271.2582683584236065 Eh
Relativity type    :
Basis              : AO
                                X                 Y                 Z
Electronic contribution:      3.446040675      -0.000869311      -0.052707673
Nuclear contribution   :     -3.446153110       0.001949667       0.148888103
                        -----------------------------------------
Total Dipole Moment    :     -0.000112434       0.001080356       0.096180430
                        -----------------------------------------
Magnitude (a.u.)       :      0.096186564
Magnitude (Debye)      :      0.244486815

Rotational constants in cm-1:             0.175281             0.085805             0.058230
Rotational constants in MHz :          5254.798892          2572.379074          1745.693725

                             ****ORCA TERMINATED NORMALLY****
TOTAL RUN TIME: 0 days 0 hours 5 minutes 29 seconds 638 msec
