                         Program Version 6.0.0  -   RELEASE  -
|  1> !r2SCAN opt aug-cc-pVTZ d3 TightSCF SlowConv RIJCOSX defgrid2
|  2>
|  3> %pal
|  4> nprocs 8
|  5> end
|  6>
|  7> %scf
|  8> MaxIter 1500
|  9> end
| 10>
| 11> %maxcore 3500
| 12>
| 13> !CPCM
| 14> %cpcm smd true
| 15> SMDsolvent "MeCN"
| 16> surfacetype gepol_ses
| 17> rsolv 2.19
| 18> end
| 19>
| 20> * xyz 0 1
| 21>   C           0.69139522684059     -1.22664316199288     -0.00221797916935
| 22>   C          -0.69208843426613     -1.22326302618807     -0.00196525733051
| 23>   C          -1.34616039220304      0.00368865913958     -0.00023297142970
| 24>   C          -0.66844027654226      1.21468227709966      0.00138953263473
| 25>   C           0.71843497009282      1.19248771948923      0.00066270652995
| 26>   C           1.40687036809188     -0.02425170438717     -0.00101619596594
| 27>   C           2.90525430739599     -0.08038259963976     -0.00146963485712
| 28>   O           3.47382029732778     -1.16302464690175      0.00111415420213
| 29>   C           3.67189657948305      1.21206200897054     -0.00465317637956
| 30>   H           3.41916712103349      1.80793633317031      0.87637239446926
| 31>   H           4.73910184710129      1.00122370195943     -0.00799457044905
| 32>   H           3.41331173583201      1.80745504721735     -0.88415133468888
| 33>   H           1.25644606715329      2.13013407948356      0.00099979092485
| 34>   H          -1.21526162161310      2.14578953100855      0.00342527162178
| 35>   N          -2.81540793846571      0.01898129684798      0.00093485387668
| 36>   O          -3.38103867502306      1.10941225945787      0.00330237637192
| 37>   O          -3.40288918840984     -1.05983019471924     -0.00027163185462
| 38>   H          -1.25884617768305     -2.14248628889820     -0.00267181367981
| 39>   H           1.23537608385400     -2.16135779111698     -0.00359121482675
| 40> *
| 41>
| 42>                          ****END OF INPUT****
 Total Charge           Charge          ....    0
 Multiplicity           Mult            ....    1
 Number of Electrons    NEL             ....   86
Dispersion correction           -0.006339087
FINAL SINGLE POINT ENERGY      -589.338835416348
Dispersion correction             ... done (  0.1 sec)
Dispersion correction           -0.006341813
FINAL SINGLE POINT ENERGY      -589.338870453470
Dispersion correction             ... done (  0.0 sec)
Dispersion correction           -0.006342151
FINAL SINGLE POINT ENERGY      -589.338871767667
Dispersion correction             ... done (  0.0 sec)
FINAL SINGLE POINT ENERGY      -589.338854653058
Dispersion correction             ... done (  0.1 sec)
Dispersion correction           -0.006341871
FINAL SINGLE POINT ENERGY      -589.338876089929
Dispersion correction             ... done (  0.1 sec)
Dispersion correction           -0.006341779
FINAL SINGLE POINT ENERGY      -589.338874971152
Dispersion correction             ... done (  0.0 sec)
                    ***********************HURRAY********************

CARTESIAN COORDINATES (ANGSTROEM)
---------------------------------
  C      0.692236   -1.223721   -0.002130
  C     -0.690213   -1.221032   -0.001929
  C     -1.346852    0.004214   -0.000145
  C     -0.668173    1.214523    0.001494
  C      0.717632    1.193635    0.000769
  C      1.407839   -0.021947   -0.000899
  C      2.905880   -0.080831   -0.001280
  O      3.471926   -1.162359    0.001461
  C      3.669835    1.207321   -0.004810
  H      3.416155    1.805847    0.873701
  H      4.736722    0.997687   -0.008068
  H      3.410325    1.804852   -0.882145
  H      1.253752    2.132759    0.001066
  H     -1.214229    2.146538    0.003557
  N     -2.814254    0.018506    0.000817
  O     -3.379373    1.106768    0.004052
  O     -3.399538   -1.059058   -0.001320
  H     -1.254894   -2.142027   -0.002687
  H      1.236166   -2.159060   -0.003537

 Multiplicity           Mult            ....    1
 Number of Electrons    NEL             ....   86
 Basis Dimension        Dim             ....  713

ORBITAL ENERGIES
----------------

  NO   OCC          E(Eh)            E(eV)
   0   2.0000     -18.998037      -516.9629
   1   2.0000     -18.998016      -516.9623
   2   2.0000     -18.951866      -515.7065
   3   2.0000     -14.405716      -391.9995
   4   2.0000     -10.133946      -275.7587
   5   2.0000     -10.108839      -275.0755
   6   2.0000     -10.069901      -274.0159
   7   2.0000     -10.066977      -273.9364
   8   2.0000     -10.066310      -273.9182
   9   2.0000     -10.063873      -273.8519
  10   2.0000     -10.060826      -273.7690
  11   2.0000     -10.030484      -272.9434
  12   2.0000      -1.202529       -32.7225
  13   2.0000      -1.028543       -27.9881
  14   2.0000      -1.013130       -27.5687
  15   2.0000      -0.862569       -23.4717
  16   2.0000      -0.786399       -21.3990
  17   2.0000      -0.743732       -20.2380
  18   2.0000      -0.718748       -19.5581
  19   2.0000      -0.675204       -18.3732
  20   2.0000      -0.600556       -16.3419
  21   2.0000      -0.582680       -15.8555
  22   2.0000      -0.538433       -14.6515
  23   2.0000      -0.527293       -14.3484
  24   2.0000      -0.513441       -13.9714
  25   2.0000      -0.494498       -13.4560
  26   2.0000      -0.458938       -12.4883
  27   2.0000      -0.449053       -12.2193
  28   2.0000      -0.431326       -11.7370
  29   2.0000      -0.418583       -11.3902
  30   2.0000      -0.413234       -11.2447
  31   2.0000      -0.395262       -10.7556
  32   2.0000      -0.385846       -10.4994
  33   2.0000      -0.369235       -10.0474
  34   2.0000      -0.350584        -9.5399
  35   2.0000      -0.336871        -9.1667
  36   2.0000      -0.331770        -9.0279
  37   2.0000      -0.302871        -8.2415
  38   2.0000      -0.289311        -7.8726
  39   2.0000      -0.269602        -7.3363
  40   2.0000      -0.268012        -7.2930
  41   2.0000      -0.262322        -7.1381
  42   2.0000      -0.230052        -6.2600
  43   0.0000      -0.136564        -3.7161
  44   0.0000      -0.078317        -2.1311
  45   0.0000      -0.056635        -1.5411
  46   0.0000       0.003797         0.1033
  47   0.0000       0.005141         0.1399

MULLIKEN ATOMIC CHARGES
-----------------------
   0 C :   -0.851874
   1 C :   -0.314089
   2 C :    0.465131
   3 C :   -0.598391
   4 C :   -0.277865
   5 C :    1.147584
   6 C :    0.816029
   7 O :   -0.963665
   8 C :   -0.523779
   9 H :    0.241098
  10 H :    0.161560
  11 H :    0.240033
  12 H :    0.034523
  13 H :    0.440679
  14 N :    0.767650
  15 O :   -0.674099
  16 O :   -0.675238
  17 H :    0.514934
  18 H :    0.049778
Sum of atomic charges:    0.0000000

LOEWDIN ATOMIC CHARGES
----------------------
   0 C :    0.225562
   1 C :    0.228594
   2 C :   -0.224233
   3 C :    0.233673
   4 C :    0.239930
   5 C :   -0.105994
   6 C :   -0.524140
   7 O :    0.491213
   8 C :    0.586142
   9 H :   -0.160523
  10 H :   -0.177378
  11 H :   -0.160728
  12 H :   -0.175329
  13 H :   -0.187970
  14 N :   -0.730806
  15 O :    0.407160
  16 O :    0.407432
  17 H :   -0.189271
  18 H :   -0.183334

  Mayer bond orders larger than 0.100000
B(  0-C ,  1-C ) :   1.2433 B(  0-C ,  2-C ) :  -0.3774 B(  0-C ,  4-C ) :  -0.3870
B(  0-C ,  5-C ) :   0.2522 B(  0-C ,  6-C ) :   0.2363 B(  0-C , 16-O ) :  -0.1004
B(  0-C , 18-H ) :   1.1722 B(  1-C ,  2-C ) :   0.9007 B(  1-C ,  3-C ) :   0.1017
B(  1-C ,  4-C ) :  -0.1539 B(  1-C ,  5-C ) :   0.1792 B(  1-C , 14-N ) :  -0.1446
B(  1-C , 17-H ) :   0.3784 B(  2-C ,  3-C ) :   0.7350 B(  2-C ,  4-C ) :  -0.2989
B(  2-C , 14-N ) :   1.1972 B(  2-C , 15-O ) :   0.4042 B(  2-C , 16-O ) :   0.4196
B(  3-C ,  4-C ) :   0.7606 B(  3-C ,  5-C ) :   0.2049 B(  3-C , 13-H ) :   0.4847
B(  3-C , 14-N ) :  -0.2125 B(  4-C ,  5-C ) :   0.5853 B(  4-C , 12-H ) :   1.3168
B(  5-C ,  6-C ) :   0.3291 B(  5-C ,  7-O ) :   0.2468 B(  5-C ,  8-C ) :   0.1201
B(  5-C , 12-H ) :  -0.1858 B(  5-C , 18-H ) :  -0.1238 B(  6-C ,  7-O ) :   0.8036
B(  6-C ,  8-C ) :   0.9188 B(  7-O , 18-H ) :   0.1620 B(  8-C ,  9-H ) :   0.9688
B(  8-C , 10-H ) :   0.9452 B(  8-C , 11-H ) :   0.9699 B( 14-N , 15-O ) :   0.9348
B( 14-N , 16-O ) :   0.9303 B( 15-O , 16-O ) :   0.2031

Dispersion correction           -0.006341803
FINAL SINGLE POINT ENERGY      -589.338876233383

DIPOLE MOMENT
-------------

Method             : SCF
Type of density    : Electron Density
Multiplicity       :   1
Irrep              :   0
Energy             :  -589.3325344304248574 Eh
Relativity type    :
Basis              : AO
                                X                 Y                 Z
Electronic contribution:     -9.363507317      -2.941652145       0.010239997
Nuclear contribution   :     10.816219595       4.289579341      -0.015044680
                        -----------------------------------------
Total Dipole Moment    :      1.452712278       1.347927196      -0.004804683
                        -----------------------------------------
Magnitude (a.u.)       :      1.981742610
Magnitude (Debye)      :      5.037189403

Rotational constants in cm-1:             0.096241             0.015948             0.013715
Rotational constants in MHz :          2885.235924           478.099446           411.174847

                             ****ORCA TERMINATED NORMALLY****
TOTAL RUN TIME: 0 days 0 hours 14 minutes 38 seconds 286 msec
