                         Program Version 6.0.0  -   RELEASE  -
|  1> !r2SCANh freq aug-cc-pVTZ d3 TightSCF SlowConv RIJCOSX defgrid2
|  2>
|  3> %pal
|  4> nprocs 12
|  5> end
|  6>
|  7> %scf
|  8> MaxIter 1500
|  9> end
| 10>
| 11> %maxcore 5000
| 12>
| 13> !CPCM
| 14> %cpcm smd true
| 15> SMDsolvent "MeCN"
| 16> surfacetype gepol_ses
| 17> rsolv 2.19
| 18> end
| 19>
| 20> * xyz 0 1
| 21>   C           0.69173193058705     -1.22091706407494     -0.00220959076231
| 22>   C          -0.68833624216335     -1.21807688667621     -0.00198113226114
| 23>   C          -1.34284700135487      0.00466069743455     -0.00018251194426
| 24>   C          -0.66616915905627      1.21234681114789      0.00144783352125
| 25>   C           0.71723755579904      1.19127321834071      0.00072267682424
| 26>   C           1.40497111365675     -0.02167905634752     -0.00095478536964
| 27>   C           2.90136196711905     -0.08018122388477     -0.00128806310611
| 28>   O           3.46492496374843     -1.15768708535499      0.00157923617834
| 29>   C           3.66372122638003      1.20595857660148     -0.00477965497189
| 30>   H           3.41028918347095      1.80228394402046      0.87281055113324
| 31>   H           4.72870966947471      0.99632746007285     -0.00805453769778
| 32>   H           3.40443114626274      1.80135254519942     -0.88114153592828
| 33>   H           1.25294021737913      2.12841263632317      0.00107213778171
| 34>   H          -1.21101783503196      2.14279199825083      0.00355002106407
| 35>   N          -2.80676086982216      0.01900683277867      0.00085572615552
| 36>   O          -3.36823271700310      1.10128148261428      0.00387167512191
| 37>   O          -3.38849743863496     -1.05250719575831     -0.00099140541807
| 38>   H          -1.25194569783921     -2.13741435842857     -0.00272341150628
| 39>   H           1.23442988702799     -2.15461983225898     -0.00363792881450
| 40> *
| 41>
| 42>                          ****END OF INPUT****

CARTESIAN COORDINATES (ANGSTROEM)
---------------------------------
  C      0.691732   -1.220917   -0.002210
  C     -0.688336   -1.218077   -0.001981
  C     -1.342847    0.004661   -0.000183
  C     -0.666169    1.212347    0.001448
  C      0.717238    1.191273    0.000723
  C      1.404971   -0.021679   -0.000955
  C      2.901362   -0.080181   -0.001288
  O      3.464925   -1.157687    0.001579
  C      3.663721    1.205959   -0.004780
  H      3.410289    1.802284    0.872811
  H      4.728710    0.996327   -0.008055
  H      3.404431    1.801353   -0.881142
  H      1.252940    2.128413    0.001072
  H     -1.211018    2.142792    0.003550
  N     -2.806761    0.019007    0.000856
  O     -3.368233    1.101281    0.003872
  O     -3.388497   -1.052507   -0.000991
  H     -1.251946   -2.137414   -0.002723
  H      1.234430   -2.154620   -0.003638

 Total Charge           Charge          ....    0
 Multiplicity           Mult            ....    1
 Number of Electrons    NEL             ....   86
 Basis Dimension        Dim             ....  713

ORBITAL ENERGIES
----------------

  NO   OCC          E(Eh)            E(eV)
   0   2.0000     -19.160301      -521.3783
   1   2.0000     -19.160188      -521.3752
   2   2.0000     -19.113271      -520.0986
   3   2.0000     -14.552768      -396.0009
   4   2.0000     -10.255015      -279.0532
   5   2.0000     -10.228631      -278.3352
   6   2.0000     -10.189207      -277.2624
   7   2.0000     -10.186599      -277.1914
   8   2.0000     -10.185915      -277.1728
   9   2.0000     -10.183297      -277.1016
  10   2.0000     -10.180213      -277.0177
  11   2.0000     -10.149279      -276.1759
  12   2.0000      -1.251860       -34.0648
  13   2.0000      -1.072672       -29.1889
  14   2.0000      -1.055632       -28.7252
  15   2.0000      -0.899625       -24.4800
  16   2.0000      -0.821320       -22.3493
  17   2.0000      -0.776812       -21.1381
  18   2.0000      -0.751341       -20.4450
  19   2.0000      -0.706492       -19.2246
  20   2.0000      -0.629282       -17.1236
  21   2.0000      -0.611189       -16.6313
  22   2.0000      -0.566434       -15.4134
  23   2.0000      -0.555520       -15.1165
  24   2.0000      -0.542733       -14.7685
  25   2.0000      -0.522745       -14.2246
  26   2.0000      -0.485079       -13.1997
  27   2.0000      -0.474296       -12.9062
  28   2.0000      -0.454867       -12.3775
  29   2.0000      -0.441389       -12.0108
  30   2.0000      -0.436264       -11.8713
  31   2.0000      -0.420008       -11.4290
  32   2.0000      -0.408563       -11.1176
  33   2.0000      -0.389808       -10.6072
  34   2.0000      -0.372123       -10.1260
  35   2.0000      -0.357167        -9.7190
  36   2.0000      -0.352520        -9.5926
  37   2.0000      -0.322895        -8.7864
  38   2.0000      -0.313922        -8.5422
  39   2.0000      -0.295726        -8.0471
  40   2.0000      -0.282113        -7.6767
  41   2.0000      -0.276349        -7.5198
  42   2.0000      -0.252558        -6.8725
  43   0.0000      -0.123410        -3.3582
  44   0.0000      -0.062188        -1.6922
  45   0.0000      -0.043395        -1.1808
  46   0.0000       0.007262         0.1976
  47   0.0000       0.021318         0.5801

MULLIKEN ATOMIC CHARGES
-----------------------
   0 C :   -0.884998
   1 C :   -0.355804
   2 C :    0.523840
   3 C :   -0.643559
   4 C :   -0.299125
   5 C :    1.210281
   6 C :    0.797463
   7 O :   -0.973342
   8 C :   -0.583742
   9 H :    0.261160
  10 H :    0.182353
  11 H :    0.259806
  12 H :    0.040056
  13 H :    0.466337
  14 N :    0.758277
  15 O :   -0.680014
  16 O :   -0.681344
  17 H :    0.540324
  18 H :    0.062032
Sum of atomic charges:    0.0000000

LOEWDIN ATOMIC CHARGES
----------------------
   0 C :    0.225759
   1 C :    0.228898
   2 C :   -0.225353
   3 C :    0.234030
   4 C :    0.239826
   5 C :   -0.106573
   6 C :   -0.526841
   7 O :    0.492904
   8 C :    0.587744
   9 H :   -0.160755
  10 H :   -0.177415
  11 H :   -0.160994
  12 H :   -0.175665
  13 H :   -0.187808
  14 N :   -0.738594
  15 O :    0.411545
  16 O :    0.411787
  17 H :   -0.189135
  18 H :   -0.183359

  Mayer bond orders larger than 0.100000
B(  0-C ,  1-C ) :   1.2881 B(  0-C ,  2-C ) :  -0.3784 B(  0-C ,  4-C ) :  -0.3960
B(  0-C ,  5-C ) :   0.2302 B(  0-C ,  6-C ) :   0.2390 B(  0-C , 18-H ) :   1.2029
B(  1-C ,  2-C ) :   0.9106 B(  1-C ,  3-C ) :   0.1019 B(  1-C ,  4-C ) :  -0.1495
B(  1-C ,  5-C ) :   0.1880 B(  1-C , 14-N ) :  -0.1461 B(  1-C , 17-H ) :   0.3658
B(  2-C ,  3-C ) :   0.7451 B(  2-C ,  4-C ) :  -0.2903 B(  2-C , 14-N ) :   1.1893
B(  2-C , 15-O ) :   0.3928 B(  2-C , 16-O ) :   0.4010 B(  3-C ,  4-C ) :   0.8094
B(  3-C ,  5-C ) :   0.2196 B(  3-C , 13-H ) :   0.4723 B(  3-C , 14-N ) :  -0.2084
B(  4-C ,  5-C ) :   0.5363 B(  4-C ,  6-C ) :   0.1030 B(  4-C , 12-H ) :   1.3573
B(  5-C ,  6-C ) :   0.3256 B(  5-C ,  7-O ) :   0.2037 B(  5-C ,  8-C ) :   0.1094
B(  5-C , 12-H ) :  -0.1982 B(  5-C , 18-H ) :  -0.1405 B(  6-C ,  7-O ) :   0.8328
B(  6-C ,  8-C ) :   0.9224 B(  7-O , 18-H ) :   0.1638 B(  8-C ,  9-H ) :   0.9625
B(  8-C , 10-H ) :   0.9483 B(  8-C , 11-H ) :   0.9641 B( 14-N , 15-O ) :   0.9452
B( 14-N , 16-O ) :   0.9423 B( 15-O , 16-O ) :   0.1883

Dispersion correction           -0.006610369
FINAL SINGLE POINT ENERGY      -589.299374430839

DIPOLE MOMENT
-------------

Method             : SCF
Type of density    : Electron Density
Multiplicity       :   1
Irrep              :   0
Energy             :  -589.2927640619255953 Eh
Relativity type    :
Basis              : AO
                                X                 Y                 Z
Electronic contribution:     -9.348479229      -2.927672076       0.010218474
Nuclear contribution   :     10.791174838       4.278421149      -0.015100801
                        -----------------------------------------
Total Dipole Moment    :      1.442695609       1.350749073      -0.004882327
                        -----------------------------------------
Magnitude (a.u.)       :      1.976339423
Magnitude (Debye)      :      5.023455594

VIBRATIONAL FREQUENCIES
-----------------------

Scaling factor for frequencies =  1.000000000  (already applied!)

     0:       0.00 cm**-1
     1:       0.00 cm**-1
     2:       0.00 cm**-1
     3:       0.00 cm**-1
     4:       0.00 cm**-1
     5:       0.00 cm**-1
     6:     -23.31 cm**-1 ***imaginary mode***
     7:      25.25 cm**-1
     8:      72.33 cm**-1
     9:     162.37 cm**-1
    10:     163.44 cm**-1
    11:     236.43 cm**-1
    12:     278.17 cm**-1
    13:     297.86 cm**-1
    14:     411.25 cm**-1
    15:     439.64 cm**-1
    16:     447.83 cm**-1
    17:     515.31 cm**-1
    18:     546.07 cm**-1
    19:     590.58 cm**-1
    20:     629.41 cm**-1
    21:     638.16 cm**-1
    22:     713.66 cm**-1
    23:     767.74 cm**-1
    24:     779.34 cm**-1
    25:     847.21 cm**-1
    26:     883.07 cm**-1
    27:     884.08 cm**-1
    28:     969.81 cm**-1
    29:     998.80 cm**-1
    30:    1013.68 cm**-1
    31:    1031.39 cm**-1
    32:    1041.53 cm**-1
    33:    1100.55 cm**-1
    34:    1126.70 cm**-1
    35:    1127.89 cm**-1
    36:    1191.64 cm**-1
    37:    1276.17 cm**-1
    38:    1320.53 cm**-1
    39:    1369.65 cm**-1
    40:    1382.29 cm**-1
    41:    1395.80 cm**-1
    42:    1441.00 cm**-1
    43:    1447.93 cm**-1
    44:    1452.46 cm**-1
    45:    1523.23 cm**-1
    46:    1574.03 cm**-1
    47:    1648.61 cm**-1
    48:    1654.75 cm**-1
    49:    1745.01 cm**-1
    50:    3054.86 cm**-1
    51:    3121.92 cm**-1
    52:    3172.60 cm**-1
    53:    3223.28 cm**-1
    54:    3226.23 cm**-1
    55:    3246.42 cm**-1
    56:    3248.21 cm**-1

IR SPECTRUM
-----------

 Mode   freq       eps      Int      T**2         TX        TY        TZ
       cm**-1   L/(mol*cm) km/mol    a.u.
----------------------------------------------------------------------------
  7:     25.25   0.000482    2.43  0.005954  (-0.001680 -0.000721  0.077141)
  8:     72.33   0.001288    6.51  0.005558  (-0.000214 -0.000250 -0.074550)
  9:    162.37   0.001356    6.85  0.002607  ( 0.038760  0.032599  0.006438)
 10:    163.44   0.000512    2.59  0.000977  ( 0.022240  0.019337 -0.010400)
 11:    236.43   0.000214    1.08  0.000283  (-0.000417  0.000188 -0.016819)
 12:    278.17   0.001189    6.01  0.001334  (-0.031637  0.018257 -0.000074)
 13:    297.86   0.000036    0.18  0.000038  (-0.002999 -0.005408  0.000022)
 14:    411.25   0.000002    0.01  0.000001  ( 0.000093 -0.001120  0.000458)
 15:    439.64   0.000922    4.66  0.000655  (-0.013723 -0.021518  0.001854)
 16:    447.83   0.000830    4.20  0.000578  ( 0.000297  0.001468  0.024004)
 17:    515.31   0.003601   18.20  0.002180  (-0.046588 -0.003158  0.000301)
 18:    546.07   0.000620    3.13  0.000354  (-0.014043 -0.012534  0.000225)
 19:    590.58   0.003491   17.64  0.001845  ( 0.000309 -0.000133 -0.042948)
 20:    629.41   0.005227   26.41  0.002591  (-0.046921 -0.019744  0.000198)
 21:    638.16   0.000078    0.39  0.000038  (-0.002660 -0.005570  0.000151)
 22:    713.66   0.005627   28.43  0.002460  ( 0.000032 -0.000070  0.049602)
 23:    767.74   0.005657   28.59  0.002299  ( 0.047948  0.000388  0.000397)
 24:    779.34   0.009711   49.07  0.003888  ( 0.000530  0.000186 -0.062355)
 25:    847.21   0.000176    0.89  0.000065  (-0.000249  0.000113  0.008036)
 26:    883.07   0.013330   67.37  0.004711  ( 0.068479  0.001984  0.004175)
 27:    884.08   0.011377   57.49  0.004016  (-0.005154 -0.000463  0.063158)
 28:    969.81   0.011529   58.26  0.003710  ( 0.054120  0.027943  0.000278)
 29:    998.80   0.000009    0.05  0.000003  (-0.001237 -0.000097 -0.001145)
 30:   1013.68   0.000051    0.26  0.000016  (-0.000115 -0.001061 -0.003810)
 31:   1031.39   0.004351   21.99  0.001317  ( 0.036115  0.003495 -0.000237)
 32:   1041.53   0.000595    3.01  0.000178  (-0.000241 -0.000212 -0.013351)
 33:   1100.55   0.001268    6.41  0.000360  ( 0.016416  0.009492 -0.000131)
 34:   1126.70   0.005648   28.54  0.001564  (-0.025446  0.030279 -0.000079)
 35:   1127.89   0.013460   68.02  0.003724  ( 0.059107  0.015184 -0.000042)
 36:   1191.64   0.004034   20.39  0.001057  (-0.032252 -0.004040 -0.000052)
 37:   1276.17   0.081740  413.08  0.019988  (-0.140594 -0.014881  0.000004)
 38:   1320.53   0.000884    4.47  0.000209  ( 0.014103 -0.003158 -0.000038)
 39:   1369.65   0.043418  219.42  0.009892  ( 0.082324  0.055813 -0.000243)
 40:   1382.29   0.098287  496.70  0.022189  ( 0.147571 -0.020291  0.000018)
 41:   1395.80   0.013841   69.94  0.003094  (-0.001430  0.055609  0.000083)
 42:   1441.00   0.003286   16.60  0.000712  (-0.021123 -0.016288 -0.000118)
 43:   1447.93   0.007527   38.04  0.001622  (-0.031231  0.025398 -0.001331)
 44:   1452.46   0.003612   18.25  0.000776  (-0.001603  0.001581  0.027767)
 45:   1523.23   0.000242    1.22  0.000050  ( 0.005399  0.004511 -0.000059)
 46:   1574.03   0.093378  471.90  0.018513  (-0.010216 -0.135678 -0.000320)
 47:   1648.61   0.001885    9.53  0.000357  (-0.013320  0.013397  0.000024)
 48:   1654.75   0.013237   66.89  0.002496  (-0.016499  0.047161  0.000050)
 49:   1745.01   0.075042  379.23  0.013420  ( 0.068532 -0.093398  0.000285)
 50:   3054.86   0.000139    0.70  0.000014  (-0.003767 -0.000069  0.000041)
 51:   3121.92   0.000518    2.62  0.000052  (-0.000049 -0.000224  0.007191)
 52:   3172.60   0.004053   20.48  0.000399  (-0.019963 -0.000365 -0.000063)
 53:   3223.28   0.000603    3.05  0.000058  (-0.006309 -0.004305  0.000114)
 54:   3226.23   0.000276    1.40  0.000027  (-0.000524 -0.005143 -0.000148)
 55:   3246.42   0.000226    1.14  0.000022  (-0.003726 -0.002792  0.000077)
 56:   3248.21   0.000445    2.25  0.000043  ( 0.005525 -0.003489 -0.000094)

--------------------------
THERMOCHEMISTRY AT 298.15K
--------------------------

Temperature         ...   298.15 K
Pressure            ...     1.00 atm
Total Mass          ...   165.15 AMU
Quasi RRHO          ...     True
Cut-Off Frequency   ...     1.00 cm^-1

Throughout the following assumptions are being made:
  (1) The electronic state is orbitally nondegenerate
  (2) There are no thermally accessible electronically excited states
  (3) Hindered rotations indicated by low frequency modes are not
      treated as such but are treated as vibrations and this may
      cause some error
  (4) All equations used are the standard statistical mechanics
      equations for an ideal gas
  (5) All vibrations are strictly harmonic

freq.      25.25  E(vib)   ...       0.56
freq.      72.33  E(vib)   ...       0.50
freq.     162.37  E(vib)   ...       0.39
freq.     163.44  E(vib)   ...       0.39
freq.     236.43  E(vib)   ...       0.32
freq.     278.17  E(vib)   ...       0.28
freq.     297.86  E(vib)   ...       0.27
freq.     411.25  E(vib)   ...       0.19
freq.     439.64  E(vib)   ...       0.17
freq.     447.83  E(vib)   ...       0.17
freq.     515.31  E(vib)   ...       0.13
freq.     546.07  E(vib)   ...       0.12
freq.     590.58  E(vib)   ...       0.10
freq.     629.41  E(vib)   ...       0.09
freq.     638.16  E(vib)   ...       0.09
freq.     713.66  E(vib)   ...       0.07
freq.     767.74  E(vib)   ...       0.06
freq.     779.34  E(vib)   ...       0.05
freq.     847.21  E(vib)   ...       0.04
freq.     883.07  E(vib)   ...       0.04
freq.     884.08  E(vib)   ...       0.04
freq.     969.81  E(vib)   ...       0.03
freq.     998.80  E(vib)   ...       0.02
freq.    1013.68  E(vib)   ...       0.02
freq.    1031.39  E(vib)   ...       0.02
freq.    1041.53  E(vib)   ...       0.02
freq.    1100.55  E(vib)   ...       0.02
freq.    1126.70  E(vib)   ...       0.01
freq.    1127.89  E(vib)   ...       0.01
freq.    1191.64  E(vib)   ...       0.01
freq.    1276.17  E(vib)   ...       0.01
freq.    1320.53  E(vib)   ...       0.01
freq.    1369.65  E(vib)   ...       0.01
freq.    1382.29  E(vib)   ...       0.01
freq.    1395.80  E(vib)   ...       0.00
freq.    1441.00  E(vib)   ...       0.00
freq.    1447.93  E(vib)   ...       0.00
freq.    1452.46  E(vib)   ...       0.00
freq.    1523.23  E(vib)   ...       0.00
freq.    1574.03  E(vib)   ...       0.00
freq.    1648.61  E(vib)   ...       0.00
freq.    1654.75  E(vib)   ...       0.00
freq.    1745.01  E(vib)   ...       0.00
freq.    3054.86  E(vib)   ...       0.00
freq.    3121.92  E(vib)   ...       0.00
freq.    3172.60  E(vib)   ...       0.00
freq.    3223.28  E(vib)   ...       0.00
freq.    3226.23  E(vib)   ...       0.00
freq.    3246.42  E(vib)   ...       0.00
freq.    3248.21  E(vib)   ...       0.00

------------
INNER ENERGY
------------

The inner energy is: U= E(el) + E(ZPE) + E(vib) + E(rot) + E(trans)
    E(el)   - is the total energy from the electronic structure calculation
              = E(kin-el) + E(nuc-el) + E(el-el) + E(nuc-nuc)
    E(ZPE)  - the the zero temperature vibrational energy from the frequency calculation
    E(vib)  - the the finite temperature correction to E(ZPE) due to population
              of excited vibrational states
    E(rot)  - is the rotational thermal energy
    E(trans)- is the translational thermal energy

Summary of contributions to the inner energy U:
Electronic energy                ...   -589.29937443 Eh
Zero point energy                ...      0.14000739 Eh      87.86 kcal/mol
Thermal vibrational correction   ...      0.00679353 Eh       4.26 kcal/mol
Thermal rotational correction    ...      0.00141627 Eh       0.89 kcal/mol
Thermal translational correction ...      0.00141627 Eh       0.89 kcal/mol
-----------------------------------------------------------------------
Total thermal energy                   -589.14974097 Eh

Summary of corrections to the electronic energy:
(perhaps to be used in another calculation)
Total thermal correction                  0.00962607 Eh       6.04 kcal/mol
Non-thermal (ZPE) correction              0.14000739 Eh      87.86 kcal/mol
-----------------------------------------------------------------------
Total correction                          0.14963346 Eh      93.90 kcal/mol

--------
ENTHALPY
--------

The enthalpy is H = U + kB*T
                kB is Boltzmann's constant
Total thermal energy              ...   -589.14974097 Eh
Thermal Enthalpy correction       ...      0.00094421 Eh       0.59 kcal/mol
-----------------------------------------------------------------------
Total Enthalpy                    ...   -589.14879676 Eh

Note: Only C1 symmetry has been detected, increase convergence thresholds
      if your molecule has a higher symmetry. Symmetry factor of 1.0 is
      used for the rotational entropy correction.

Note: Rotational entropy computed according to Herzberg
Infrared and Raman Spectra, Chapter V,1, Van Nostrand Reinhold, 1945
Point Group:  C1, Symmetry Number:   1
Rotational constants in cm-1:     0.096813     0.016025     0.013784

Vibrational entropy computed according to the QRRHO of S. Grimme
Chem.Eur.J. 2012 18 9955 using a reference frequency of 100.0 cm-1

-------
ENTROPY
-------

The entropy contributions are T*S = T*(S(el)+S(vib)+S(rot)+S(trans))
     S(el)   - electronic entropy
     S(vib)  - vibrational entropy
     S(rot)  - rotational entropy
     S(trans)- translational entropy
The entropies will be listed as multiplied by the temperature to get
units of energy

Electronic entropy                ...      0.00000000 Eh      0.00 kcal/mol
Vibrational entropy               ...      0.01163454 Eh      7.30 kcal/mol
Rotational entropy                ...      0.01458711 Eh      9.15 kcal/mol
Translational entropy             ...      0.01958175 Eh     12.29 kcal/mol
-----------------------------------------------------------------------
Final entropy term                ...      0.04580339 Eh     28.74 kcal/mol

In case the symmetry of your molecule has not been determined correctly
or in case you have a reason to use a different symmetry number we print
out the resulting rotational entropy values for sn=1,12:

 non-linear molecules -----------------------------------
|  sn= 1 | S(rot)=       0.01458711 Eh      9.15 kcal/mol|
|  sn= 2 | S(rot)=       0.01393265 Eh      8.74 kcal/mol|
|  sn= 3 | S(rot)=       0.01354982 Eh      8.50 kcal/mol|
|  sn= 4 | S(rot)=       0.01327819 Eh      8.33 kcal/mol|
|  sn= 5 | S(rot)=       0.01306751 Eh      8.20 kcal/mol|
|  sn= 6 | S(rot)=       0.01289536 Eh      8.09 kcal/mol|
|  sn= 7 | S(rot)=       0.01274982 Eh      8.00 kcal/mol|
|  sn= 8 | S(rot)=       0.01262374 Eh      7.92 kcal/mol|
|  sn= 9 | S(rot)=       0.01251253 Eh      7.85 kcal/mol|
|  sn=10 | S(rot)=       0.01241305 Eh      7.79 kcal/mol|

                             ****ORCA TERMINATED NORMALLY****
TOTAL RUN TIME: 0 days 0 hours 52 minutes 19 seconds 320 msec
