                         Program Version 6.0.0  -   RELEASE  -
|  1> !r2SCAN opt aug-cc-pVTZ d3 TightSCF SlowConv RIJCOSX defgrid2
|  2>
|  3> %pal
|  4> nprocs 8
|  5> end
|  6>
|  7> %scf
|  8> MaxIter 1500
|  9> end
| 10>
| 11> %maxcore 3500
| 12>
| 13> !CPCM
| 14> %cpcm smd true
| 15> SMDsolvent "MeCN"
| 16> surfacetype gepol_ses
| 17> rsolv 2.19
| 18> end
| 19>
| 20> * xyz 0 1
| 21>   C          -1.14933226451234     -1.23882509190584     -0.00046672280380
| 22>   C          -2.50857813675911     -0.94988227106401     -0.00054346756040
| 23>   C          -2.93817015440872      0.37868475331297     -0.00006408928605
| 24>   C          -2.00629101009504      1.41668452923491      0.00049673263770
| 25>   C          -0.64374499246001      1.13250357756874      0.00056381244254
| 26>   C          -0.20908515748665     -0.19753416758703      0.00007645085547
| 27>   C           1.21837162790625     -0.59720306751016      0.00007667382631
| 28>   O           1.62341721296480     -1.71314820484524     -0.00012734829677
| 29>   Cl          2.38206247173385      0.76415186429790      0.00056602291059
| 30>   H           0.09169908378046      1.93929798920226      0.00098639048783
| 31>   H          -2.34320651232058      2.45698180479248      0.00087795608335
| 32>   H          -4.00834754942676      0.60618222514384     -0.00012604204670
| 33>   H          -3.23886079813446     -1.76401666244183     -0.00098417146236
| 34>   H          -0.79061102078168     -2.27094327819897     -0.00083749778771
| 35> *
| 36>
| 37>                          ****END OF INPUT****
 Total Charge           Charge          ....    0
 Multiplicity           Mult            ....    1
 Number of Electrons    NEL             ....   72
Dispersion correction           -0.004741402
FINAL SINGLE POINT ENERGY      -805.130574573170
Dispersion correction             ... done (  0.1 sec)
Dispersion correction           -0.004744771
FINAL SINGLE POINT ENERGY      -805.131400885395
Dispersion correction             ... done (  0.1 sec)
Dispersion correction           -0.004745260
FINAL SINGLE POINT ENERGY      -805.131579577010
Dispersion correction             ... done (  0.1 sec)
FINAL SINGLE POINT ENERGY      -805.131511286554
FINAL SINGLE POINT ENERGY      -805.131665992588
FINAL SINGLE POINT ENERGY      -805.131681353917
Dispersion correction             ... done (  0.1 sec)
Dispersion correction           -0.004743013
FINAL SINGLE POINT ENERGY      -805.131684292060
Dispersion correction             ... done (  0.1 sec)
Dispersion correction           -0.004742944
FINAL SINGLE POINT ENERGY      -805.131684392759
Dispersion correction             ... done (  0.1 sec)
                    ***********************HURRAY********************

CARTESIAN COORDINATES (ANGSTROEM)
---------------------------------
  C     -1.155206   -1.242821   -0.000421
  C     -2.507647   -0.948723    0.000076
  C     -2.932095    0.378335    0.000325
  C     -2.000886    1.412428   -0.000323
  C     -0.643503    1.128364   -0.000788
  C     -0.213928   -0.201721   -0.000619
  C      1.195501   -0.603089   -0.000224
  O      1.635658   -1.708853   -0.003552
  Cl     2.394470    0.789014    0.006508
  H      0.077353    1.933404   -0.001611
  H     -2.332467    2.443066    0.000335
  H     -3.991288    0.605621    0.001202
  H     -3.233142   -1.752547    0.000290
  H     -0.813499   -2.269545   -0.000705

 Multiplicity           Mult            ....    1
 Number of Electrons    NEL             ....   72
 Basis Dimension        Dim             ....  533

ORBITAL ENERGIES
----------------

  NO   OCC          E(Eh)            E(eV)
   0   2.0000    -101.221705     -2754.3826
   1   2.0000     -18.986674      -516.6537
   2   2.0000     -10.187445      -277.2145
   3   2.0000     -10.076039      -274.1830
   4   2.0000     -10.059790      -273.7408
   5   2.0000     -10.059591      -273.7354
   6   2.0000     -10.056478      -273.6507
   7   2.0000     -10.051367      -273.5116
   8   2.0000     -10.051213      -273.5074
   9   2.0000      -9.374753      -255.1000
  10   2.0000      -7.119120      -193.7211
  11   2.0000      -7.112048      -193.5287
  12   2.0000      -7.110789      -193.4944
  13   2.0000      -1.058978       -28.8163
  14   2.0000      -0.847014       -23.0484
  15   2.0000      -0.804820       -21.9003
  16   2.0000      -0.744549       -20.2602
  17   2.0000      -0.731311       -19.9000
  18   2.0000      -0.624483       -16.9930
  19   2.0000      -0.589139       -16.0313
  20   2.0000      -0.539171       -14.6716
  21   2.0000      -0.495590       -13.4857
  22   2.0000      -0.458053       -12.4643
  23   2.0000      -0.446449       -12.1485
  24   2.0000      -0.424110       -11.5406
  25   2.0000      -0.417325       -11.3560
  26   2.0000      -0.415160       -11.2971
  27   2.0000      -0.402658       -10.9569
  28   2.0000      -0.358400        -9.7525
  29   2.0000      -0.338526        -9.2117
  30   2.0000      -0.323901        -8.8138
  31   2.0000      -0.302488        -8.2311
  32   2.0000      -0.298762        -8.1297
  33   2.0000      -0.270999        -7.3742
  34   2.0000      -0.260451        -7.0872
  35   2.0000      -0.254882        -6.9357
  36   0.0000      -0.107466        -2.9243
  37   0.0000      -0.049240        -1.3399
  38   0.0000      -0.016861        -0.4588
  39   0.0000      -0.004159        -0.1132
  40   0.0000       0.008270         0.2250

MULLIKEN ATOMIC CHARGES
-----------------------
   0 C :   -0.828206
   1 C :   -0.428778
   2 C :   -0.246555
   3 C :   -0.645337
   4 C :   -0.767495
   5 C :    1.438343
   6 C :    0.643784
   7 O :   -0.716988
   8 Cl:   -0.310221
   9 H :    0.338173
  10 H :    0.468028
  11 H :    0.471212
  12 H :    0.423652
  13 H :    0.160387
Sum of atomic charges:    0.0000000

LOEWDIN ATOMIC CHARGES
----------------------
   0 C :    0.198100
   1 C :    0.222978
   2 C :    0.221174
   3 C :    0.220095
   4 C :    0.165086
   5 C :   -0.249279
   6 C :   -1.088343
   7 O :    0.416205
   8 Cl:    0.823894
   9 H :   -0.242273
  10 H :   -0.169972
  11 H :   -0.166295
  12 H :   -0.169572
  13 H :   -0.181798

  Mayer bond orders larger than 0.100000
B(  0-C ,  1-C ) :   1.1410 B(  0-C ,  4-C ) :  -0.1067 B(  0-C ,  5-C ) :   0.3158
B(  0-C ,  6-C ) :   0.1419 B(  0-C , 13-H ) :   0.8819 B(  1-C ,  2-C ) :   1.1015
B(  1-C , 12-H ) :   0.6971 B(  2-C ,  3-C ) :   1.1613 B(  2-C ,  5-C ) :  -0.1734
B(  2-C , 11-H ) :   0.6247 B(  3-C ,  4-C ) :   1.1432 B(  3-C ,  5-C ) :  -0.1328
B(  3-C , 10-H ) :   0.6211 B(  4-C ,  5-C ) :   0.1924 B(  4-C ,  6-C ) :   0.1351
B(  4-C ,  9-H ) :   0.9735 B(  5-C ,  6-C ) :   0.6276 B(  5-C ,  7-O ) :   0.2450
B(  5-C ,  8-Cl) :   0.1795 B(  6-C ,  7-O ) :   1.0108 B(  6-C ,  8-Cl) :   0.7452
B(  7-O , 13-H ) :   0.1555 B(  8-Cl,  9-H ) :  -0.1516

Dispersion correction           -0.004742935
FINAL SINGLE POINT ENERGY      -805.131684611745

DIPOLE MOMENT
-------------

Method             : SCF
Type of density    : Electron Density
Multiplicity       :   1
Irrep              :   0
Energy             :  -805.1269416771540364 Eh
Relativity type    :
Basis              : AO
                                X                 Y                 Z
Electronic contribution:     10.689086206       0.748394755       0.012616365
Nuclear contribution   :    -12.882282735      -0.199749991      -0.012826796
                        -----------------------------------------
Total Dipole Moment    :     -2.193196529       0.548644764      -0.000210431
                        -----------------------------------------
Magnitude (a.u.)       :      2.260779100
Magnitude (Debye)      :      5.746443794

Rotational constants in cm-1:             0.103808             0.030964             0.023850
Rotational constants in MHz :          3112.083936           928.262857           714.997526

                             ****ORCA TERMINATED NORMALLY****
TOTAL RUN TIME: 0 days 0 hours 14 minutes 43 seconds 234 msec
