                         Program Version 6.0.0  -   RELEASE  -
|  1> !TPSSh aug-cc-pVTZ d3 TightSCF SlowConv RIJCOSX defgrid2
|  2>
|  3> %pal
|  4> nprocs 4
|  5> end
|  6>
|  7> %scf
|  8> MaxIter 1500
|  9> end
| 10>
| 11> %maxcore 3000
| 12>
| 13> !CPCM
| 14> %cpcm smd true
| 15> SMDsolvent "MeCN"
| 16> surfacetype gepol_ses
| 17> rsolv 2.19
| 18> end
| 19>
| 20> * xyz 0 1
| 21> C          -0.04647165541644      1.20175007347372     -0.00553050489943
| 22> C          -1.43870555706960      1.21239589451355     -0.01141185238374
| 23> C          -2.17026954226625      0.01947100552438     -0.01038224809804
| 24> C          -1.46074461278387     -1.19072092102756     -0.00906771027749
| 25> C          -0.07326224349215     -1.20622095149758     -0.00304890212203
| 26> C           0.65481182780619     -0.00920634999724     -0.00042230964481
| 27> C           2.14757419996696     -0.09199024361869      0.00402287730635
| 28> O           2.70671249810890     -1.16711072436472      0.00700907779024
| 29> C           2.93897617802630      1.19587993441016      0.00548036505340
| 30> H           4.01096899238357      0.95048347070739      0.01057835934714
| 31> H           2.69949954286715      1.80719828499160      0.89313893013017
| 32> H           2.70739245523851      1.80422714815017     -0.88630361962564
| 33> H           0.48538632677828     -2.14590904376286     -0.00336087408771
| 34> H          -2.01268479893227     -2.13645944857989     -0.01530874702934
| 35> C          -3.67109078228289      0.02991456776547      0.01617054647882
| 36> H          -4.04511368194266     -0.09506499069857      1.04953886808692
| 37> H          -4.07732921380228      0.97936405308667     -0.36930347193269
| 38> H          -4.09069162992769     -0.79514284196197     -0.58364116879760
| 39> H          -1.97059871816062      2.16919815395977     -0.01931477093783
| 40> H           0.49134391490087      2.15362812892619     -0.00824554435670
| 41> *
| 42>
| 43>                          ****END OF INPUT****

CARTESIAN COORDINATES (ANGSTROEM)
---------------------------------
  C     -0.046472    1.201750   -0.005531
  C     -1.438706    1.212396   -0.011412
  C     -2.170270    0.019471   -0.010382
  C     -1.460745   -1.190721   -0.009068
  C     -0.073262   -1.206221   -0.003049
  C      0.654812   -0.009206   -0.000422
  C      2.147574   -0.091990    0.004023
  O      2.706712   -1.167111    0.007009
  C      2.938976    1.195880    0.005480
  H      4.010969    0.950483    0.010578
  H      2.699500    1.807198    0.893139
  H      2.707392    1.804227   -0.886304
  H      0.485386   -2.145909   -0.003361
  H     -2.012685   -2.136459   -0.015309
  C     -3.671091    0.029915    0.016171
  H     -4.045114   -0.095065    1.049539
  H     -4.077329    0.979364   -0.369303
  H     -4.090692   -0.795143   -0.583641
  H     -1.970599    2.169198   -0.019315
  H      0.491344    2.153628   -0.008246

 Total Charge           Charge          ....    0
 Multiplicity           Mult            ....    1
 Number of Electrons    NEL             ....   72
 Basis Dimension        Dim             ....  690

ORBITAL ENERGIES
----------------

  NO   OCC          E(Eh)            E(eV)
   0   2.0000     -19.040240      -518.1113
   1   2.0000     -10.197830      -277.4971
   2   2.0000     -10.132756      -275.7263
   3   2.0000     -10.125061      -275.5169
   4   2.0000     -10.122581      -275.4494
   5   2.0000     -10.120975      -275.4057
   6   2.0000     -10.117694      -275.3164
   7   2.0000     -10.117434      -275.3094
   8   2.0000     -10.108946      -275.0784
   9   2.0000     -10.108677      -275.0711
  10   2.0000      -1.020525       -27.7699
  11   2.0000      -0.843759       -22.9599
  12   2.0000      -0.765785       -20.8381
  13   2.0000      -0.731568       -19.9070
  14   2.0000      -0.714112       -19.4320
  15   2.0000      -0.668906       -18.2018
  16   2.0000      -0.590664       -16.0728
  17   2.0000      -0.583656       -15.8821
  18   2.0000      -0.530280       -14.4297
  19   2.0000      -0.476233       -12.9589
  20   2.0000      -0.452254       -12.3065
  21   2.0000      -0.433384       -11.7930
  22   2.0000      -0.422582       -11.4990
  23   2.0000      -0.417540       -11.3619
  24   2.0000      -0.404575       -11.0090
  25   2.0000      -0.400863       -10.9080
  26   2.0000      -0.399995       -10.8844
  27   2.0000      -0.365955        -9.9582
  28   2.0000      -0.359515        -9.7829
  29   2.0000      -0.355962        -9.6862
  30   2.0000      -0.334580        -9.1044
  31   2.0000      -0.334362        -9.0984
  32   2.0000      -0.319892        -8.7047
  33   2.0000      -0.250803        -6.8247
  34   2.0000      -0.241691        -6.5768
  35   2.0000      -0.235754        -6.4152
  36   0.0000      -0.070741        -1.9250
  37   0.0000      -0.028245        -0.7686
  38   0.0000      -0.004252        -0.1157
  39   0.0000       0.006429         0.1750
  40   0.0000       0.013504         0.3675

MULLIKEN ATOMIC CHARGES
-----------------------
   0 C :   -0.392422
   1 C :   -0.790032
   2 C :    0.936667
   3 C :   -0.678191
   4 C :   -0.946272
   5 C :    1.108090
   6 C :    0.985316
   7 O :   -1.033180
   8 C :   -0.220030
   9 H :   -0.037814
  10 H :    0.192571
  11 H :    0.192691
  12 H :    0.017138
  13 H :    0.204251
  14 C :   -0.271408
  15 H :    0.158743
  16 H :    0.117063
  17 H :    0.132619
  18 H :    0.140185
  19 H :    0.184016
Sum of atomic charges:    0.0000000

LOEWDIN ATOMIC CHARGES
----------------------
   0 C :    0.207537
   1 C :    0.227169
   2 C :   -0.130493
   3 C :    0.222759
   4 C :    0.193326
   5 C :   -0.138840
   6 C :   -0.554161
   7 O :    0.485766
   8 C :    0.564628
   9 H :   -0.178549
  10 H :   -0.158955
  11 H :   -0.158898
  12 H :   -0.187286
  13 H :   -0.161202
  14 C :    0.578951
  15 H :   -0.149001
  16 H :   -0.164912
  17 H :   -0.160895
  18 H :   -0.162234
  19 H :   -0.174711

  Mayer bond orders larger than 0.100000
B(  0-C ,  1-C ) :   1.3762 B(  0-C ,  4-C ) :  -0.2943 B(  0-C ,  5-C ) :   0.6107
B(  0-C , 19-H ) :   0.9279 B(  1-C ,  2-C ) :   0.8089 B(  1-C ,  4-C ) :   0.1113
B(  1-C ,  5-C ) :  -0.1401 B(  1-C , 18-H ) :   0.9510 B(  2-C ,  3-C ) :   0.9725
B(  2-C , 14-C ) :   0.7346 B(  3-C ,  4-C ) :   1.6005 B(  3-C ,  5-C ) :  -0.1971
B(  3-C ,  7-O ) :  -0.1019 B(  3-C , 13-H ) :   0.8351 B(  4-C ,  5-C ) :   0.4873
B(  4-C ,  6-C ) :   0.1210 B(  4-C , 12-H ) :   1.0072 B(  5-C ,  6-C ) :   0.6238
B(  5-C ,  7-O ) :   0.3867 B(  6-C ,  7-O ) :   0.3150 B(  6-C ,  8-C ) :   1.0509
B(  6-C , 12-H ) :  -0.1384 B(  7-O , 12-H ) :   0.2101 B(  8-C ,  9-H ) :   1.0240
B(  8-C , 10-H ) :   0.9376 B(  8-C , 11-H ) :   0.9381 B( 14-C , 15-H ) :   0.9634
B( 14-C , 16-H ) :   0.9667 B( 14-C , 17-H ) :   0.9566

Dispersion correction           -0.023977366
FINAL SINGLE POINT ENERGY      -424.425539482567

DIPOLE MOMENT
-------------

Method             : SCF
Type of density    : Electron Density
Multiplicity       :   1
Irrep              :   0
Energy             :  -424.4015621167197878 Eh
Relativity type    :
Basis              : AO
                                X                 Y                 Z
Electronic contribution:      4.044654204      -3.077483441      -0.040066488
Nuclear contribution   :     -5.402543283       4.383900218       0.062989255
                        -----------------------------------------
Total Dipole Moment    :     -1.357889079       1.306416778       0.022922767
                        -----------------------------------------
Magnitude (a.u.)       :      1.884439705
Magnitude (Debye)      :      4.789865073

Rotational constants in cm-1:             0.120803             0.026206             0.021712
Rotational constants in MHz :          3621.570490           785.633269           650.900953

                             ****ORCA TERMINATED NORMALLY****
TOTAL RUN TIME: 0 days 0 hours 6 minutes 46 seconds 223 msec
