                         Program Version 6.0.0  -   RELEASE  -
|  1> !r2SCANh aug-cc-pVTZ d3 TightSCF SlowConv RIJCOSX defgrid2
|  2>
|  3> %pal
|  4> nprocs 6
|  5> end
|  6>
|  7> %scf
|  8> MaxIter 1500
|  9> end
| 10>
| 11> %maxcore 3000
| 12>
| 13> !CPCM
| 14> %cpcm smd true
| 15> SMDsolvent "MeCN"
| 16> surfacetype gepol_ses
| 17> rsolv 2.19
| 18> end
| 19>
| 20> * xyz -1 2
| 21>   C          -3.62984747030359      2.10634854089890      0.29413366187786
| 22>   C          -4.88521656793814      1.52460279264563      0.21285194664948
| 23>   C          -2.43996070251224      1.35928996872449      0.08422922937252
| 24>   C          -2.61096888777262     -0.00171874484877     -0.27802191885602
| 25>   C          -3.87287251644746     -0.57850198655770     -0.36904469903670
| 26>   C          -5.03023873609438      0.16696438667983     -0.10988269549484
| 27>   C          -1.16948079167151      2.09256049707431      0.16164767275919
| 28>   C           0.12067423933497      1.40594735978097      0.30426152268307
| 29>   C           1.28964189965584      2.16414147627999      0.02630190894131
| 30>   C           2.56066514539573      1.62761624229261      0.15812903251074
| 31>   C           2.74361326089362      0.30916965549547      0.60191698925079
| 32>   C           1.60721306175648     -0.44185421529682      0.92902893717985
| 33>   C           0.32976744930311      0.08871154082537      0.78825579984698
| 34>   O          -1.18787359702741      3.35479483613606      0.10344354720181
| 35>   H          -3.95752568777400     -1.63142375583986     -0.66486174996515
| 36>   H          -6.02174902533034     -0.29324813226849     -0.17715643182860
| 37>   H          -3.50305728008549      3.16796655235268      0.52140925280262
| 38>   H          -5.77643532337797      2.13678032750153      0.39984091569786
| 39>   H          -1.74010174342944     -0.60523310453178     -0.54356548187453
| 40>   H          -0.52377533184004     -0.51255708549791      1.10930263672941
| 41>   H           3.74754253761040     -0.11513493690994      0.70902931502125
| 42>   H           1.72088092192766     -1.46080357442395      1.31909388538700
| 43>   H           1.13299801894373      3.19674935471579     -0.29607576485640
| 44>   H           3.43450583978311      2.24528941977158     -0.08460366299948
| 45> *
| 46>
| 47>                          ****END OF INPUT****

CARTESIAN COORDINATES (ANGSTROEM)
---------------------------------
  C     -3.629847    2.106349    0.294134
  C     -4.885217    1.524603    0.212852
  C     -2.439961    1.359290    0.084229
  C     -2.610969   -0.001719   -0.278022
  C     -3.872873   -0.578502   -0.369045
  C     -5.030239    0.166964   -0.109883
  C     -1.169481    2.092560    0.161648
  C      0.120674    1.405947    0.304262
  C      1.289642    2.164141    0.026302
  C      2.560665    1.627616    0.158129
  C      2.743613    0.309170    0.601917
  C      1.607213   -0.441854    0.929029
  C      0.329767    0.088712    0.788256
  O     -1.187874    3.354795    0.103444
  H     -3.957526   -1.631424   -0.664862
  H     -6.021749   -0.293248   -0.177156
  H     -3.503057    3.167967    0.521409
  H     -5.776435    2.136780    0.399841
  H     -1.740102   -0.605233   -0.543565
  H     -0.523775   -0.512557    1.109303
  H      3.747543   -0.115135    0.709029
  H      1.720881   -1.460804    1.319094
  H      1.132998    3.196749   -0.296076
  H      3.434506    2.245289   -0.084604

 Total Charge           Charge          ....   -1
 Multiplicity           Mult            ....    2
 Number of Electrons    NEL             ....   97
 Basis Dimension        Dim             ....  874

ORBITAL ENERGIES
----------------
                 SPIN UP ORBITALS
  NO   OCC          E(Eh)            E(eV)
   0   1.0000     -19.036534      -518.0104
   1   1.0000     -10.175924      -276.9010
   2   1.0000     -10.146206      -276.0923
   3   1.0000     -10.146188      -276.0918
   4   1.0000     -10.146157      -276.0910
   5   1.0000     -10.146143      -276.0906
   6   1.0000     -10.144661      -276.0503
   7   1.0000     -10.144640      -276.0497
   8   1.0000     -10.144211      -276.0380
   9   1.0000     -10.144199      -276.0377
  10   1.0000     -10.143280      -276.0127
  11   1.0000     -10.143249      -276.0118
  12   1.0000     -10.137991      -275.8688
  13   1.0000     -10.137973      -275.8683
  14   1.0000      -0.971213       -26.4281
  15   1.0000      -0.839051       -22.8318
  16   1.0000      -0.835670       -22.7397
  17   1.0000      -0.747970       -20.3533
  18   1.0000      -0.729261       -19.8442
  19   1.0000      -0.728256       -19.8169
  20   1.0000      -0.723428       -19.6855
  21   1.0000      -0.628269       -17.0961
  22   1.0000      -0.587212       -15.9788
  23   1.0000      -0.581838       -15.8326
  24   1.0000      -0.570333       -15.5195
  25   1.0000      -0.526864       -14.3367
  26   1.0000      -0.493860       -13.4386
  27   1.0000      -0.474499       -12.9118
  28   1.0000      -0.435646       -11.8545
  29   1.0000      -0.426988       -11.6189
  30   1.0000      -0.419682       -11.4201
  31   1.0000      -0.414135       -11.2692
  32   1.0000      -0.393439       -10.7060
  33   1.0000      -0.390702       -10.6315
  34   1.0000      -0.388000       -10.5580
  35   1.0000      -0.370651       -10.0859
  36   1.0000      -0.368675       -10.0322
  37   1.0000      -0.352156        -9.5826
  38   1.0000      -0.333903        -9.0860
  39   1.0000      -0.327592        -8.9142
  40   1.0000      -0.319648        -8.6981
  41   1.0000      -0.302892        -8.2421
  42   1.0000      -0.298822        -8.1314
  43   1.0000      -0.243369        -6.6224
  44   1.0000      -0.243225        -6.6185
  45   1.0000      -0.238700        -6.4954
  46   1.0000      -0.236627        -6.4389
  47   1.0000      -0.200836        -5.4650
  48   1.0000      -0.102158        -2.7799
  49   0.0000      -0.023040        -0.6269
  50   0.0000      -0.011610        -0.3159
  51   0.0000      -0.010488        -0.2854
  52   0.0000       0.008514         0.2317
  53   0.0000       0.019575         0.5327

                 SPIN DOWN ORBITALS
  NO   OCC          E(Eh)            E(eV)
   0   1.0000     -19.028981      -517.8049
   1   1.0000     -10.171042      -276.7681
   2   1.0000     -10.147521      -276.1281
   3   1.0000     -10.147514      -276.1279
   4   1.0000     -10.147316      -276.1225
   5   1.0000     -10.147297      -276.1220
   6   1.0000     -10.145089      -276.0619
   7   1.0000     -10.145052      -276.0609
   8   1.0000     -10.142385      -275.9883
   9   1.0000     -10.142381      -275.9882
  10   1.0000     -10.140285      -275.9312
  11   1.0000     -10.140242      -275.9300
  12   1.0000     -10.135684      -275.8060
  13   1.0000     -10.135660      -275.8053
  14   1.0000      -0.958844       -26.0915
  15   1.0000      -0.836364       -22.7586
  16   1.0000      -0.833625       -22.6841
  17   1.0000      -0.742917       -20.2158
  18   1.0000      -0.726792       -19.7770
  19   1.0000      -0.725888       -19.7524
  20   1.0000      -0.721089       -19.6218
  21   1.0000      -0.617086       -16.7918
  22   1.0000      -0.584377       -15.9017
  23   1.0000      -0.581170       -15.8144
  24   1.0000      -0.568560       -15.4713
  25   1.0000      -0.523391       -14.2422
  26   1.0000      -0.493065       -13.4170
  27   1.0000      -0.470677       -12.8078
  28   1.0000      -0.433214       -11.7884
  29   1.0000      -0.425698       -11.5838
  30   1.0000      -0.418361       -11.3842
  31   1.0000      -0.413001       -11.2383
  32   1.0000      -0.390163       -10.6169
  33   1.0000      -0.388930       -10.5833
  34   1.0000      -0.386424       -10.5151
  35   1.0000      -0.365990        -9.9591
  36   1.0000      -0.357978        -9.7411
  37   1.0000      -0.346382        -9.4255
  38   1.0000      -0.331770        -9.0279
  39   1.0000      -0.319990        -8.7074
  40   1.0000      -0.306614        -8.3434
  41   1.0000      -0.301561        -8.2059
  42   1.0000      -0.295293        -8.0353
  43   1.0000      -0.237929        -6.4744
  44   1.0000      -0.236997        -6.4490
  45   1.0000      -0.229656        -6.2493
  46   1.0000      -0.218244        -5.9387
  47   1.0000      -0.194219        -5.2850
  48   0.0000      -0.048891        -1.3304
  49   0.0000      -0.012311        -0.3350
  50   0.0000      -0.007015        -0.1909
  51   0.0000      -0.005620        -0.1529
  52   0.0000       0.009982         0.2716

MULLIKEN ATOMIC CHARGES AND SPIN POPULATIONS
--------------------------------------------
   0 C :   -1.334056    0.211068
   1 C :   -0.622302   -0.132380
   2 C :    2.307652   -0.109041
   3 C :   -0.623456    0.181130
   4 C :   -1.054999   -0.125219
   5 C :   -0.259926    0.222958
   6 C :    0.705460    0.296938
   7 C :    2.308204   -0.109031
   8 C :   -1.328855    0.211678
   9 C :   -0.623132   -0.132149
  10 C :   -0.263661    0.223740
  11 C :   -1.069942   -0.125491
  12 C :   -0.627332    0.181097
  13 O :   -1.215093    0.267675
  14 H :    0.370741   -0.005843
  15 H :    0.567101   -0.008247
  16 H :   -0.216444   -0.010187
  17 H :    0.467378   -0.004124
  18 H :    0.152446   -0.002733
  19 H :    0.151613   -0.002505
  20 H :    0.568570   -0.009378
  21 H :    0.376079   -0.005666
  22 H :   -0.225832   -0.010506
  23 H :    0.489789   -0.003786
Sum of atomic charges         :   -1.0000000

LOEWDIN ATOMIC CHARGES AND SPIN POPULATIONS
-------------------------------------------
   0 C :    0.151246    0.057599
   1 C :    0.151652    0.006535
   2 C :   -0.173986    0.060151
   3 C :    0.167050    0.052480
   4 C :    0.158626    0.008587
   5 C :    0.155749    0.074978
   6 C :   -0.633838    0.185251
   7 C :   -0.174042    0.060373
   8 C :    0.151298    0.057779
   9 C :    0.151507    0.006580
  10 C :    0.155797    0.075327
  11 C :    0.158446    0.008667
  12 C :    0.166863    0.052685
  13 O :    0.375813    0.220899
  14 H :   -0.180126   -0.005197
  15 H :   -0.188858    0.020735
  16 H :   -0.219917    0.013926
  17 H :   -0.181979   -0.006237
  18 H :   -0.210081    0.012753
  19 H :   -0.210175    0.012793
  20 H :   -0.188902    0.020825
  21 H :   -0.180175   -0.005205
  22 H :   -0.219957    0.013966
  23 H :   -0.182013   -0.006251

  Mayer bond orders larger than 0.100000
B(  0-C ,  1-C ) :   1.2075 B(  0-C ,  2-C ) :  -0.5676 B(  0-C ,  3-C ) :  -0.6856
B(  0-C ,  5-C ) :  -0.1629 B(  0-C ,  6-C ) :   0.3188 B(  0-C ,  7-C ) :   0.1306
B(  0-C , 15-H ) :   0.1299 B(  0-C , 16-H ) :   1.7212 B(  0-C , 17-H ) :  -0.1999
B(  0-C , 18-H ) :   0.1162 B(  1-C ,  4-C ) :   0.2073 B(  1-C ,  5-C ) :   0.9886
B(  1-C , 17-H ) :   0.5924 B(  1-C , 18-H ) :  -0.1650 B(  2-C ,  3-C ) :   0.2016
B(  2-C ,  4-C ) :  -0.1233 B(  2-C ,  6-C ) :   0.3805 B(  2-C ,  7-C ) :  -0.1298
B(  2-C ,  8-C ) :   0.1292 B(  2-C , 12-C ) :   0.1050 B(  2-C , 16-H ) :  -0.3196
B(  2-C , 19-H ) :  -0.1077 B(  3-C ,  4-C ) :   1.1460 B(  3-C ,  6-C ) :   0.2401
B(  3-C ,  7-C ) :   0.1080 B(  3-C , 18-H ) :   1.4656 B(  3-C , 19-H ) :  -0.1342
B(  4-C ,  5-C ) :   1.1338 B(  4-C , 14-H ) :   0.6824 B(  4-C , 15-H ) :  -0.1127
B(  4-C , 16-H ) :  -0.1209 B(  5-C ,  6-C ) :   0.2502 B(  5-C , 15-H ) :   0.4863
B(  6-C ,  7-C ) :   0.3803 B(  6-C ,  8-C ) :   0.3095 B(  6-C , 10-C ) :   0.2460
B(  6-C , 12-C ) :   0.2398 B(  6-C , 16-H ) :  -0.3817 B(  6-C , 18-H ) :  -0.1435
B(  6-C , 19-H ) :  -0.1477 B(  6-C , 22-H ) :  -0.3920 B(  7-C ,  8-C ) :  -0.5665
B(  7-C , 11-C ) :  -0.1266 B(  7-C , 12-C ) :   0.2004 B(  7-C , 18-H ) :  -0.1121
B(  7-C , 22-H ) :  -0.3276 B(  8-C ,  9-C ) :   1.2059 B(  8-C , 10-C ) :  -0.1765
B(  8-C , 12-C ) :  -0.6904 B(  8-C , 19-H ) :   0.1221 B(  8-C , 20-H ) :   0.1320
B(  8-C , 22-H ) :   1.7462 B(  8-C , 23-H ) :  -0.2014 B(  9-C , 10-C ) :   0.9970
B(  9-C , 11-C ) :   0.2250 B(  9-C , 19-H ) :  -0.1706 B(  9-C , 23-H ) :   0.5441
B( 10-C , 11-C ) :   1.1441 B( 10-C , 20-H ) :   0.4877 B( 11-C , 12-C ) :   1.1487
B( 11-C , 20-H ) :  -0.1190 B( 11-C , 21-H ) :   0.6709 B( 11-C , 22-H ) :  -0.1197
B( 12-C , 18-H ) :  -0.1319 B( 12-C , 19-H ) :   1.4678 B( 12-C , 22-H ) :   0.1011
B( 13-O , 16-H ) :   0.3512 B( 13-O , 22-H ) :   0.3521 B( 16-H , 18-H ) :   0.1886
B( 16-H , 22-H ) :   0.1825 B( 19-H , 22-H ) :   0.1929

Dispersion correction           -0.009555047
FINAL SINGLE POINT ENERGY      -576.598905371499

DIPOLE MOMENT
-------------

Method             : SCF
Type of density    : Electron Density
Multiplicity       :   2
Irrep              :   0
Energy             :  -576.5893503241305780 Eh
Relativity type    :
Basis              : AO
                                X                 Y                 Z
Electronic contribution:     -0.036565445       2.348900218      -0.109979163
Nuclear contribution   :      0.065380464      -4.610103580       0.211136604
                        -----------------------------------------
Total Dipole Moment    :      0.028815019      -2.261203362       0.101157441
                        -----------------------------------------
Magnitude (a.u.)       :      2.263648333
Magnitude (Debye)      :      5.753736807

Rotational constants in cm-1:             0.059016             0.013412             0.011183
Rotational constants in MHz :          1769.265782           402.071173           335.263928

                             ****ORCA TERMINATED NORMALLY****
TOTAL RUN TIME: 0 days 0 hours 12 minutes 14 seconds 568 msec
