                         Program Version 6.0.0  -   RELEASE  -
|  1> !PBE0 aug-cc-pVTZ d3 TightSCF SlowConv RIJCOSX defgrid2
|  2>
|  3> %pal
|  4> nprocs 4
|  5> end
|  6>
|  7> %scf
|  8> MaxIter 1500
|  9> end
| 10>
| 11> %maxcore 3000
| 12>
| 13> !CPCM
| 14> %cpcm smd true
| 15> SMDsolvent "MeCN"
| 16> surfacetype gepol_ses
| 17> rsolv 2.19
| 18> end
| 19>
| 20> * xyz 1 2
| 21> C           1.51758494546740     -1.23435025814247     -0.00000948537283
| 22> C           2.20770781647749      0.00001697777377     -0.00002575082433
| 23> C           1.51757870176219      1.23438133176831     -0.00002376652717
| 24> C           0.14399615849667      1.24528780380919     -0.00000994709932
| 25> C          -0.57050335234681      0.00000980865076      0.00000339046104
| 26> C           0.14400107382655     -1.24526565590726      0.00000274901341
| 27> H          -0.41918051446955     -2.18175157250380      0.00001235664707
| 28> C          -1.95875076928202      0.00001227638427      0.00003168049002
| 29> C          -3.18886914512795      0.00003850956088      0.00015576875982
| 30> H          -4.27093083747358      0.00004174929515      0.00024791741498
| 31> H          -0.41918961682318      2.18177237850725     -0.00001398172647
| 32> H           2.07968932476853      2.17184704992506     -0.00003742036749
| 33> H           3.30249892053071      0.00001489531919     -0.00004324082103
| 34> H           2.07970099419353     -2.17181369444030     -0.00001477004770
| 35> *
| 36>
| 37>                          ****END OF INPUT****

CARTESIAN COORDINATES (ANGSTROEM)
---------------------------------
  C      1.517585   -1.234350   -0.000009
  C      2.207708    0.000017   -0.000026
  C      1.517579    1.234381   -0.000024
  C      0.143996    1.245288   -0.000010
  C     -0.570503    0.000010    0.000003
  C      0.144001   -1.245266    0.000003
  H     -0.419181   -2.181752    0.000012
  C     -1.958751    0.000012    0.000032
  C     -3.188869    0.000039    0.000156
  H     -4.270931    0.000042    0.000248
  H     -0.419190    2.181772   -0.000014
  H      2.079689    2.171847   -0.000037
  H      3.302499    0.000015   -0.000043
  H      2.079701   -2.171814   -0.000015

 Total Charge           Charge          ....    1
 Multiplicity           Mult            ....    2
 Number of Electrons    NEL             ....   53
 Basis Dimension        Dim             ....  506

ORBITAL ENERGIES
----------------
                 SPIN UP ORBITALS
  NO   OCC          E(Eh)            E(eV)
   0   1.0000     -10.332398      -281.1588
   1   1.0000     -10.308842      -280.5178
   2   1.0000     -10.304136      -280.3898
   3   1.0000     -10.298446      -280.2350
   4   1.0000     -10.290966      -280.0314
   5   1.0000     -10.290965      -280.0314
   6   1.0000     -10.275563      -279.6123
   7   1.0000     -10.275562      -279.6123
   8   1.0000      -0.943940       -25.6859
   9   1.0000      -0.868313       -23.6280
  10   1.0000      -0.821297       -22.3486
  11   1.0000      -0.810125       -22.0446
  12   1.0000      -0.700270       -19.0553
  13   1.0000      -0.669193       -18.2097
  14   1.0000      -0.607354       -16.5269
  15   1.0000      -0.570126       -15.5139
  16   1.0000      -0.533639       -14.5210
  17   1.0000      -0.522355       -14.2140
  18   1.0000      -0.482174       -13.1206
  19   1.0000      -0.477105       -12.9827
  20   1.0000      -0.455406       -12.3922
  21   1.0000      -0.411293       -11.1918
  22   1.0000      -0.400217       -10.8905
  23   1.0000      -0.388089       -10.5605
  24   1.0000      -0.345909        -9.4127
  25   1.0000      -0.316835        -8.6215
  26   1.0000      -0.310952        -8.4614
  27   0.0000      -0.101059        -2.7499
  28   0.0000      -0.048441        -1.3182
  29   0.0000      -0.009258        -0.2519
  30   0.0000      -0.002426        -0.0660
  31   0.0000       0.012119         0.3298

                 SPIN DOWN ORBITALS
  NO   OCC          E(Eh)            E(eV)
   0   1.0000     -10.328494      -281.0526
   1   1.0000     -10.302080      -280.3338
   2   1.0000     -10.299243      -280.2567
   3   1.0000     -10.299067      -280.2519
   4   1.0000     -10.289763      -279.9987
   5   1.0000     -10.289763      -279.9987
   6   1.0000     -10.276193      -279.6294
   7   1.0000     -10.276190      -279.6293
   8   1.0000      -0.936135       -25.4735
   9   1.0000      -0.858879       -23.3713
  10   1.0000      -0.819868       -22.3097
  11   1.0000      -0.791549       -21.5391
  12   1.0000      -0.692928       -18.8555
  13   1.0000      -0.665286       -18.1034
  14   1.0000      -0.603836       -16.4312
  15   1.0000      -0.565453       -15.3868
  16   1.0000      -0.530708       -14.4413
  17   1.0000      -0.519871       -14.1464
  18   1.0000      -0.479134       -13.0379
  19   1.0000      -0.476943       -12.9783
  20   1.0000      -0.431378       -11.7384
  21   1.0000      -0.410033       -11.1576
  22   1.0000      -0.398383       -10.8406
  23   1.0000      -0.353561        -9.6209
  24   1.0000      -0.340668        -9.2700
  25   1.0000      -0.313374        -8.5273
  26   0.0000      -0.215254        -5.8573
  27   0.0000      -0.068788        -1.8718
  28   0.0000      -0.037993        -1.0338
  29   0.0000      -0.006995        -0.1903
  30   0.0000      -0.001562        -0.0425

MULLIKEN ATOMIC CHARGES AND SPIN POPULATIONS
--------------------------------------------
   0 C :   -0.566787   -0.036604
   1 C :   -0.071856    0.311320
   2 C :   -0.566169   -0.036618
   3 C :   -1.059730    0.056180
   4 C :    1.143252    0.288902
   5 C :   -1.059929    0.056177
   6 H :   -0.100619   -0.012723
   7 C :    1.528210   -0.068389
   8 C :   -0.462936    0.464971
   9 H :    0.425045   -0.012307
  10 H :   -0.100172   -0.012748
  11 H :    0.655085    0.003405
  12 H :    0.581234   -0.004971
  13 H :    0.655372    0.003405
Sum of atomic charges         :    1.0000000

LOEWDIN ATOMIC CHARGES AND SPIN POPULATIONS
-------------------------------------------
   0 C :    0.270897    0.045385
   1 C :    0.294746    0.165564
   2 C :    0.270898    0.045384
   3 C :    0.267912    0.068187
   4 C :   -0.142595    0.140568
   5 C :    0.267913    0.068187
   6 H :   -0.131439    0.008106
   7 C :    0.089997    0.107229
   8 C :    0.555299    0.256526
   9 H :   -0.208427    0.053490
  10 H :   -0.131438    0.008107
  11 H :   -0.139694   -0.001467
  12 H :   -0.124376    0.036202
  13 H :   -0.139693   -0.001467

  Mayer bond orders larger than 0.100000
B(  0-C ,  1-C ) :   1.2045 B(  0-C ,  3-C ) :   0.1413 B(  0-C ,  4-C ) :   0.4091
B(  0-C ,  5-C ) :   1.5034 B(  0-C ,  7-C ) :  -0.1922 B(  0-C ,  8-C ) :  -0.1099
B(  0-C , 13-H ) :   0.3411 B(  1-C ,  2-C ) :   1.2040 B(  1-C ,  3-C ) :  -0.2610
B(  1-C ,  4-C ) :  -0.4483 B(  1-C ,  5-C ) :  -0.2606 B(  1-C ,  7-C ) :   0.4559
B(  1-C ,  8-C ) :   0.2034 B(  1-C , 11-H ) :   0.1180 B(  1-C , 12-H ) :   0.5062
B(  1-C , 13-H ) :   0.1181 B(  2-C ,  3-C ) :   1.5035 B(  2-C ,  4-C ) :   0.4111
B(  2-C ,  5-C ) :   0.1422 B(  2-C ,  7-C ) :  -0.1939 B(  2-C ,  8-C ) :  -0.1110
B(  2-C , 11-H ) :   0.3411 B(  3-C ,  4-C ) :   0.6148 B(  3-C ,  5-C ) :  -0.3540
B(  3-C ,  6-H ) :   0.2626 B(  3-C ,  7-C ) :   0.1551 B(  3-C ,  8-C ) :  -0.1656
B(  3-C , 10-H ) :   1.7778 B(  3-C , 11-H ) :  -0.1937 B(  4-C ,  5-C ) :   0.6119
B(  4-C ,  6-H ) :   0.3171 B(  4-C ,  7-C ) :   0.1493 B(  4-C ,  8-C ) :   0.7613
B(  4-C , 10-H ) :   0.3163 B(  5-C ,  6-H ) :   1.7791 B(  5-C ,  7-C ) :   0.1559
B(  5-C ,  8-C ) :  -0.1636 B(  5-C , 10-H ) :   0.2630 B(  5-C , 13-H ) :  -0.1938
B(  6-H ,  7-C ) :  -0.4907 B(  6-H ,  8-C ) :  -0.4286 B(  6-H , 10-H ) :   0.4364
B(  6-H , 13-H ) :  -0.1041 B(  7-C ,  8-C ) :   1.9536 B(  7-C ,  9-H ) :  -0.2217
B(  7-C , 10-H ) :  -0.4892 B(  7-C , 11-H ) :   0.1319 B(  7-C , 13-H ) :   0.1316
B(  8-C ,  9-H ) :   1.0395 B(  8-C , 10-H ) :  -0.4273 B(  8-C , 11-H ) :   0.1547
B(  8-C , 13-H ) :   0.1540 B( 10-H , 11-H ) :  -0.1039

Dispersion correction           -0.012330551
FINAL SINGLE POINT ENERGY      -307.906895112792

DIPOLE MOMENT
-------------

Method             : SCF
Type of density    : Electron Density
Multiplicity       :   2
Irrep              :   0
Energy             :  -307.8945645619323841 Eh
Relativity type    :
Basis              : AO
                                X                 Y                 Z
Electronic contribution:     -2.452783022      -0.000003842      -0.000291632
Nuclear contribution   :      2.200402781       0.000011219       0.000050647
                        -----------------------------------------
Total Dipole Moment    :     -0.252380241       0.000007377      -0.000240986
                        -----------------------------------------
Magnitude (a.u.)       :      0.252380356
Magnitude (Debye)      :      0.641499884

Rotational constants in cm-1:             0.181347             0.051878             0.040338
Rotational constants in MHz :          5436.638218          1555.263096          1209.313806

                             ****ORCA TERMINATED NORMALLY****
TOTAL RUN TIME: 0 days 0 hours 4 minutes 19 seconds 835 msec
