                         Program Version 6.0.0  -   RELEASE  -
|  1> !PBE0 def2-SV(p) Opt Freq d3 TightSCF SlowConv RIJCOSX defgrid2
|  2>
|  3> %pal
|  4> nprocs 4
|  5> end
|  6>
|  7> %scf
|  8> MaxIter 1500
|  9> end
| 10>
| 11> %maxcore 3000
| 12>
| 13>
| 14>
| 15> * xyz 1 2
| 16> C    -2.3491288   -1.2147960    0.3897636
| 17> C    -3.6049917   -0.6533130    0.3872699
| 18> C    -3.7893371    0.6560219   -0.0548101
| 19> C    -2.7015358    1.3948090   -0.5129265
| 20> C    -1.4355688    0.8519341   -0.5099173
| 21> C    -1.2333415   -0.4580495   -0.0288494
| 22> N    -0.0000203   -1.0469571   -0.0009089
| 23> C     1.2333427   -0.4581305    0.0283084
| 24> C     1.4353984    0.8518374    0.5094685
| 25> C     2.7013935    1.3946825    0.5129724
| 26> C     3.7893613    0.6558575    0.0553352
| 27> C     3.6051742   -0.6535055   -0.3867711
| 28> C     2.3493098   -1.2149406   -0.3897697
| 29> H     2.2064225   -2.2223979   -0.7501343
| 30> H     4.4503590   -1.2281195   -0.7314552
| 31> H     4.7775775    1.0877974    0.0647710
| 32> H     2.8528055    2.3916910    0.8955550
| 33> H     0.6104738    1.3988806    0.9379885
| 34> H    -0.0000629   -2.0667079   -0.0000269
| 35> H    -0.6107858    1.3988762   -0.9388434
| 36> H    -2.8530794    2.3917954   -0.8955136
| 37> H    -4.7775468    1.0879842   -0.0638693
| 38> H    -4.4500507   -1.2278956    0.7323181
| 39> H    -2.2061546   -2.2222629    0.7500855
| 40> *
| 41>
| 42>                          ****END OF INPUT****
 Total Charge           Charge          ....    1
 Multiplicity           Mult            ....    2
 Number of Electrons    NEL             ....   89
Dispersion correction           -0.025150466
FINAL SINGLE POINT ENERGY      -517.412325047050
Dispersion correction             ... done (  0.1 sec)
Dispersion correction           -0.024994551
FINAL SINGLE POINT ENERGY      -517.414535043024
Dispersion correction             ... done (  0.1 sec)
Dispersion correction           -0.025010142
FINAL SINGLE POINT ENERGY      -517.414591453359
Dispersion correction             ... done (  0.1 sec)
Dispersion correction           -0.024984983
FINAL SINGLE POINT ENERGY      -517.414626981341
Dispersion correction             ... done (  0.0 sec)
Dispersion correction           -0.024983681
FINAL SINGLE POINT ENERGY      -517.414630041103
Dispersion correction             ... done (  0.1 sec)
                    ***********************HURRAY********************

CARTESIAN COORDINATES (ANGSTROEM)
---------------------------------
  C     -2.345530   -1.219890    0.390373
  C     -3.618951   -0.681753    0.383891
  C     -3.823146    0.632231   -0.059977
  C     -2.742918    1.400188   -0.515351
  C     -1.459916    0.881008   -0.509333
  C     -1.246824   -0.432862   -0.029979
  N     -0.000006   -1.010857   -0.000048
  C      1.246812   -0.432872    0.029905
  C      1.459905    0.881006    0.509235
  C      2.742923    1.400152    0.515331
  C      3.823165    0.632152    0.060054
  C      3.618961   -0.681838   -0.383800
  C      2.345526   -1.219938   -0.390357
  H      2.178169   -2.241263   -0.746313
  H      4.464479   -1.283740   -0.726277
  H      4.832645    1.051874    0.072021
  H      2.914425    2.407365    0.903855
  H      0.632382    1.455573    0.929363
  H     -0.000003   -2.031541   -0.000063
  H     -0.632406    1.455538   -0.929533
  H     -2.914425    2.407398   -0.903878
  H     -4.832609    1.051987   -0.071873
  H     -4.464463   -1.283622    0.726441
  H     -2.178181   -2.241205    0.746354

 Multiplicity           Mult            ....    2
 Number of Electrons    NEL             ....   89
 Basis Dimension        Dim             ....  204

ORBITAL ENERGIES
----------------
                 SPIN UP ORBITALS
  NO   OCC          E(Eh)            E(eV)
   0   1.0000     -14.650270      -398.6541
   1   1.0000     -10.462927      -284.7107
   2   1.0000     -10.462910      -284.7103
   3   1.0000     -10.408967      -283.2424
   4   1.0000     -10.408965      -283.2423
   5   1.0000     -10.408361      -283.2259
   6   1.0000     -10.408325      -283.2249
   7   1.0000     -10.401293      -283.0336
   8   1.0000     -10.401291      -283.0335
   9   1.0000     -10.394329      -282.8441
  10   1.0000     -10.394320      -282.8438
  11   1.0000     -10.394025      -282.8358
  12   1.0000     -10.394023      -282.8357
  13   1.0000      -1.190148       -32.3856
  14   1.0000      -1.050480       -28.5850
  15   1.0000      -1.028151       -27.9774
  16   1.0000      -0.951827       -25.9005
  17   1.0000      -0.936784       -25.4912
  18   1.0000      -0.927620       -25.2418
  19   1.0000      -0.901329       -24.5264
  20   1.0000      -0.820555       -22.3284
  21   1.0000      -0.818352       -22.2685
  22   1.0000      -0.779800       -21.2194
  23   1.0000      -0.764401       -20.8004
  24   1.0000      -0.722554       -19.6617
  25   1.0000      -0.722176       -19.6514
  26   1.0000      -0.678541       -18.4640
  27   1.0000      -0.658912       -17.9299
  28   1.0000      -0.646895       -17.6029
  29   1.0000      -0.626686       -17.0530
  30   1.0000      -0.615579       -16.7508
  31   1.0000      -0.609203       -16.5773
  32   1.0000      -0.602908       -16.4060
  33   1.0000      -0.601051       -16.3554
  34   1.0000      -0.591493       -16.0953
  35   1.0000      -0.554441       -15.0871
  36   1.0000      -0.539416       -14.6782
  37   1.0000      -0.530175       -14.4268
  38   1.0000      -0.525435       -14.2978
  39   1.0000      -0.519302       -14.1309
  40   1.0000      -0.510343       -13.8871
  41   1.0000      -0.439717       -11.9653
  42   1.0000      -0.435274       -11.8444
  43   1.0000      -0.432806       -11.7773
  44   1.0000      -0.392599       -10.6832
  45   0.0000      -0.184459        -5.0194
  46   0.0000      -0.166239        -4.5236
  47   0.0000      -0.163715        -4.4549
  48   0.0000      -0.144302        -3.9266
  49   0.0000      -0.092038        -2.5045

                 SPIN DOWN ORBITALS
  NO   OCC          E(Eh)            E(eV)
   0   1.0000     -14.641066      -398.4037
   1   1.0000     -10.463632      -284.7299
   2   1.0000     -10.463613      -284.7294
   3   1.0000     -10.406453      -283.1740
   4   1.0000     -10.406451      -283.1739
   5   1.0000     -10.405851      -283.1576
   6   1.0000     -10.405815      -283.1566
   7   1.0000     -10.397610      -282.9333
   8   1.0000     -10.397608      -282.9333
   9   1.0000     -10.395696      -282.8813
  10   1.0000     -10.395687      -282.8810
  11   1.0000     -10.395399      -282.8732
  12   1.0000     -10.395397      -282.8731
  13   1.0000      -1.175896       -31.9978
  14   1.0000      -1.046403       -28.4741
  15   1.0000      -1.022817       -27.8323
  16   1.0000      -0.947911       -25.7940
  17   1.0000      -0.933824       -25.4106
  18   1.0000      -0.925257       -25.1775
  19   1.0000      -0.892336       -24.2817
  20   1.0000      -0.815721       -22.1969
  21   1.0000      -0.815216       -22.1831
  22   1.0000      -0.776871       -21.1397
  23   1.0000      -0.761337       -20.7170
  24   1.0000      -0.720311       -19.6007
  25   1.0000      -0.719267       -19.5722
  26   1.0000      -0.675365       -18.3776
  27   1.0000      -0.655161       -17.8278
  28   1.0000      -0.636115       -17.3096
  29   1.0000      -0.625008       -17.0073
  30   1.0000      -0.607213       -16.5231
  31   1.0000      -0.607014       -16.5177
  32   1.0000      -0.600219       -16.3328
  33   1.0000      -0.599886       -16.3237
  34   1.0000      -0.582435       -15.8489
  35   1.0000      -0.543211       -14.7815
  36   1.0000      -0.537743       -14.6327
  37   1.0000      -0.528658       -14.3855
  38   1.0000      -0.518293       -14.1035
  39   1.0000      -0.517978       -14.0949
  40   1.0000      -0.492599       -13.4043
  41   1.0000      -0.429175       -11.6785
  42   1.0000      -0.426644       -11.6096
  43   1.0000      -0.418835       -11.3971
  44   0.0000      -0.310426        -8.4471
  45   0.0000      -0.171715        -4.6726
  46   0.0000      -0.159780        -4.3478
  47   0.0000      -0.156166        -4.2495
  48   0.0000      -0.125367        -3.4114

MULLIKEN ATOMIC CHARGES AND SPIN POPULATIONS
--------------------------------------------
   0 C :   -0.106027    0.169713
   1 C :   -0.090770   -0.111396
   2 C :   -0.039675    0.261793
   3 C :   -0.090598   -0.111000
   4 C :   -0.123648    0.170973
   5 C :    0.155294   -0.039329
   6 N :   -0.215445    0.377049
   7 C :    0.155297   -0.039328
   8 C :   -0.123648    0.170983
   9 C :   -0.090599   -0.111006
  10 C :   -0.039673    0.261811
  11 C :   -0.090772   -0.111403
  12 C :   -0.106031    0.169722
  13 H :    0.131734   -0.008196
  14 H :    0.154427    0.004355
  15 H :    0.157821   -0.012761
  16 H :    0.152438    0.004649
  17 H :    0.153255   -0.008607
  18 H :    0.306959   -0.017465
  19 H :    0.153251   -0.008606
  20 H :    0.152437    0.004649
  21 H :    0.157817   -0.012760
  22 H :    0.154426    0.004355
  23 H :    0.131732   -0.008196
Sum of atomic charges         :    1.0000000

LOEWDIN ATOMIC CHARGES AND SPIN POPULATIONS
-------------------------------------------
   0 C :   -0.101895    0.133753
   1 C :   -0.091226   -0.063067
   2 C :   -0.055768    0.203041
   3 C :   -0.092534   -0.062166
   4 C :   -0.107289    0.134616
   5 C :    0.014305   -0.004712
   6 N :    0.019701    0.348432
   7 C :    0.014309   -0.004711
   8 C :   -0.107289    0.134624
   9 C :   -0.092532   -0.062170
  10 C :   -0.055765    0.203055
  11 C :   -0.091225   -0.063070
  12 C :   -0.101896    0.133761
  13 H :    0.152253   -0.004311
  14 H :    0.159740    0.002172
  15 H :    0.159907   -0.006292
  16 H :    0.158630    0.002450
  17 H :    0.156203   -0.004167
  18 H :    0.275640   -0.011091
  19 H :    0.156202   -0.004166
  20 H :    0.158629    0.002450
  21 H :    0.159906   -0.006292
  22 H :    0.159740    0.002172
  23 H :    0.152253   -0.004310

  Mayer bond orders larger than 0.100000
B(  0-C ,  1-C ) :   1.4632 B(  0-C ,  5-C ) :   1.2592 B(  0-C , 23-H ) :   0.9534
B(  1-C ,  2-C ) :   1.3369 B(  1-C , 22-H ) :   0.9512 B(  2-C ,  3-C ) :   1.3424
B(  2-C , 21-H ) :   0.9541 B(  3-C ,  4-C ) :   1.4475 B(  3-C , 20-H ) :   0.9513
B(  4-C ,  5-C ) :   1.2670 B(  4-C , 19-H ) :   0.9458 B(  5-C ,  6-N ) :   1.1553
B(  6-N ,  7-C ) :   1.1554 B(  6-N , 18-H ) :   0.8290 B(  7-C ,  8-C ) :   1.2670
B(  7-C , 12-C ) :   1.2592 B(  8-C ,  9-C ) :   1.4475 B(  8-C , 17-H ) :   0.9458
B(  9-C , 10-C ) :   1.3424 B(  9-C , 16-H ) :   0.9513 B( 10-C , 11-C ) :   1.3369
B( 10-C , 15-H ) :   0.9541 B( 11-C , 12-C ) :   1.4632 B( 11-C , 14-H ) :   0.9512
B( 12-C , 13-H ) :   0.9534

Dispersion correction           -0.024981922
FINAL SINGLE POINT ENERGY      -517.414630622837

DIPOLE MOMENT
-------------

Method             : SCF
Type of density    : Electron Density
Multiplicity       :   2
Irrep              :   0
Energy             :  -517.3896487004054734 Eh
Relativity type    :
Basis              : AO
                                X                 Y                 Z
Electronic contribution:      0.000035156      -1.104274157      -0.000115188
Nuclear contribution   :      0.000010787       0.666083860       0.000129839
                        -----------------------------------------
Total Dipole Moment    :      0.000045943      -0.438190297       0.000014652
                        -----------------------------------------
Magnitude (a.u.)       :      0.438190300
Magnitude (Debye)      :      1.113791228

VIBRATIONAL FREQUENCIES
-----------------------

Scaling factor for frequencies =  1.000000000  (already applied!)

     0:       0.00 cm**-1
     1:       0.00 cm**-1
     2:       0.00 cm**-1
     3:       0.00 cm**-1
     4:       0.00 cm**-1
     5:       0.00 cm**-1
     6:      57.05 cm**-1
     7:      61.20 cm**-1
     8:     107.96 cm**-1
     9:     223.52 cm**-1
    10:     232.94 cm**-1
    11:     314.53 cm**-1
    12:     345.74 cm**-1
    13:     401.50 cm**-1
    14:     419.62 cm**-1
    15:     483.91 cm**-1
    16:     490.36 cm**-1
    17:     571.49 cm**-1
    18:     608.07 cm**-1
    19:     613.52 cm**-1
    20:     656.29 cm**-1
    21:     683.82 cm**-1
    22:     691.60 cm**-1
    23:     695.61 cm**-1
    24:     784.83 cm**-1
    25:     801.48 cm**-1
    26:     832.93 cm**-1
    27:     833.74 cm**-1
    28:     847.90 cm**-1
    29:     902.07 cm**-1
    30:     948.31 cm**-1
    31:     957.82 cm**-1
    32:    1003.86 cm**-1
    33:    1005.87 cm**-1
    34:    1009.18 cm**-1
    35:    1011.69 cm**-1
    36:    1036.14 cm**-1
    37:    1036.69 cm**-1
    38:    1048.45 cm**-1
    39:    1052.28 cm**-1
    40:    1121.13 cm**-1
    41:    1133.20 cm**-1
    42:    1181.66 cm**-1
    43:    1182.09 cm**-1
    44:    1188.09 cm**-1
    45:    1204.84 cm**-1
    46:    1287.04 cm**-1
    47:    1289.53 cm**-1
    48:    1350.80 cm**-1
    49:    1357.96 cm**-1
    50:    1413.58 cm**-1
    51:    1426.84 cm**-1
    52:    1475.78 cm**-1
    53:    1503.84 cm**-1
    54:    1512.39 cm**-1
    55:    1532.72 cm**-1
    56:    1569.86 cm**-1
    57:    1624.08 cm**-1
    58:    1630.77 cm**-1
    59:    1652.07 cm**-1
    60:    1681.35 cm**-1
    61:    3204.90 cm**-1
    62:    3205.25 cm**-1
    63:    3222.43 cm**-1
    64:    3223.19 cm**-1
    65:    3230.31 cm**-1
    66:    3231.81 cm**-1
    67:    3236.99 cm**-1
    68:    3239.54 cm**-1
    69:    3242.24 cm**-1
    70:    3244.20 cm**-1
    71:    3509.91 cm**-1

IR SPECTRUM
-----------

 Mode   freq       eps      Int      T**2         TX        TY        TZ
       cm**-1   L/(mol*cm) km/mol    a.u.
----------------------------------------------------------------------------
  6:     57.05   0.000003    0.01  0.000015  (-0.000049 -0.003854 -0.000014)
  7:     61.20   0.000454    2.29  0.002313  ( 0.047041 -0.000004  0.009995)
  8:    107.96   0.000001    0.00  0.000002  (-0.000009 -0.001377  0.000002)
  9:    223.52   0.000103    0.52  0.000144  ( 0.000031  0.011980 -0.000017)
 10:    232.94   0.003699   18.69  0.004956  ( 0.064042 -0.000007 -0.029228)
 11:    314.53   0.000005    0.02  0.000005  ( 0.000007 -0.002134 -0.000004)
 12:    345.74   0.002763   13.96  0.002494  ( 0.046124  0.000000 -0.019147)
 13:    401.50   0.001148    5.80  0.000892  (-0.029153  0.000001 -0.006494)
 14:    419.62   0.000066    0.33  0.000049  (-0.000003 -0.007020 -0.000003)
 15:    483.91   0.000187    0.95  0.000121  (-0.000003  0.010995  0.000005)
 16:    490.36   0.017242   87.13  0.010973  (-0.091242  0.000001  0.051455)
 17:    571.49   0.010778   54.47  0.005885  (-0.076149  0.000000 -0.009301)
 18:    608.07   0.000186    0.94  0.000095  ( 0.000005 -0.009762  0.000002)
 19:    613.52   0.000762    3.85  0.000388  ( 0.019180  0.000002  0.004464)
 20:    656.29   0.000000    0.00  0.000000  ( 0.000004 -0.000382 -0.000002)
 21:    683.82   0.017900   90.46  0.008169  ( 0.043996 -0.000005 -0.078949)
 22:    691.60   0.014978   75.69  0.006758  ( 0.080943  0.000022  0.014374)
 23:    695.61   0.001799    9.09  0.000807  (-0.000051  0.028412 -0.000014)
 24:    784.83   0.001379    6.97  0.000548  (-0.000002 -0.023417 -0.000003)
 25:    801.48   0.017105   86.44  0.006660  (-0.006320  0.000003 -0.081363)
 26:    832.93   0.006174   31.20  0.002313  ( 0.045766  0.000033 -0.014789)
 27:    833.74   0.000125    0.63  0.000047  (-0.000226  0.006846  0.000072)
 28:    847.90   0.000007    0.04  0.000003  ( 0.000013  0.001630 -0.000004)
 29:    902.07   0.006004   30.34  0.002077  (-0.045571  0.000001  0.000636)
 30:    948.31   0.001082    5.47  0.000356  (-0.001210  0.000003  0.018833)
 31:    957.82   0.000147    0.74  0.000048  ( 0.000000 -0.006914  0.000007)
 32:   1003.86   0.010631   53.73  0.003305  ( 0.057283 -0.000002  0.004855)
 33:   1005.87   0.000717    3.62  0.000222  (-0.014730  0.000000 -0.002310)
 34:   1009.18   0.000005    0.03  0.000002  ( 0.000034  0.001286  0.000004)
 35:   1011.69   0.000000    0.00  0.000000  (-0.000010 -0.000124 -0.000000)
 36:   1036.14   0.000062    0.31  0.000019  (-0.002847 -0.000006 -0.003249)
 37:   1036.69   0.000014    0.07  0.000004  ( 0.000005 -0.002067  0.000010)
 38:   1048.45   0.002698   13.63  0.000803  ( 0.028324  0.000001  0.000863)
 39:   1052.28   0.000025    0.13  0.000008  ( 0.000024 -0.002740  0.000001)
 40:   1121.13   0.000599    3.03  0.000167  ( 0.004198 -0.000009 -0.012216)
 41:   1133.20   0.002701   13.65  0.000744  ( 0.000012  0.027272 -0.000004)
 42:   1181.66   0.000155    0.78  0.000041  (-0.006153  0.000042  0.001729)
 43:   1182.09   0.000032    0.16  0.000008  (-0.000096 -0.002911  0.000025)
 44:   1188.09   0.032398  163.73  0.008510  ( 0.091840 -0.000004  0.008665)
 45:   1204.84   0.000079    0.40  0.000021  (-0.000029 -0.004531 -0.000004)
 46:   1287.04   0.023421  118.36  0.005679  ( 0.075182  0.000000  0.005148)
 47:   1289.53   0.000000    0.00  0.000000  ( 0.000024 -0.000313  0.000001)
 48:   1350.80   0.059627  301.33  0.013775  (-0.116874 -0.000001 -0.010746)
 49:   1357.96   0.000196    0.99  0.000045  ( 0.000042 -0.006714  0.000004)
 50:   1413.58   0.025674  129.75  0.005668  ( 0.075285 -0.000000 -0.000221)
 51:   1426.84   0.000946    4.78  0.000207  (-0.000006  0.014381 -0.000000)
 52:   1475.78   0.002008   10.15  0.000425  ( 0.015144  0.000000  0.013976)
 53:   1503.84   0.015778   79.73  0.003274  ( 0.057049 -0.000005  0.004416)
 54:   1512.39   0.005860   29.61  0.001209  ( 0.000008  0.034772 -0.000000)
 55:   1532.72   0.000268    1.35  0.000055  (-0.000005 -0.007386 -0.000001)
 56:   1569.86   0.028315  143.09  0.005629  (-0.074891  0.000003  0.004455)
 57:   1624.08   0.000603    3.05  0.000116  (-0.000000 -0.010767  0.000001)
 58:   1630.77   0.017218   87.01  0.003295  ( 0.057163  0.000001  0.005219)
 59:   1652.07   0.048505  245.12  0.009162  (-0.095693  0.000000 -0.002238)
 60:   1681.35   0.000708    3.58  0.000131  ( 0.000003 -0.011461 -0.000001)
 61:   3204.90   0.000108    0.55  0.000011  ( 0.002662  0.000006  0.001859)
 62:   3205.25   0.000000    0.00  0.000000  (-0.000088  0.000163 -0.000061)
 63:   3222.43   0.000012    0.06  0.000001  ( 0.000443  0.000006  0.000986)
 64:   3223.19   0.000003    0.01  0.000000  (-0.000002  0.000532 -0.000014)
 65:   3230.31   0.000116    0.59  0.000011  ( 0.003339  0.000008  0.000223)
 66:   3231.81   0.000050    0.25  0.000005  (-0.000014  0.002187 -0.000001)
 67:   3236.99   0.000508    2.57  0.000049  (-0.006017  0.000008  0.003570)
 68:   3239.54   0.000174    0.88  0.000017  ( 0.000009  0.004095 -0.000007)
 69:   3242.24   0.000010    0.05  0.000001  (-0.000295 -0.000026 -0.000912)
 70:   3244.20   0.000401    2.03  0.000039  ( 0.000000 -0.006214  0.000004)
 71:   3509.91   0.013385   67.64  0.001190  (-0.000001 -0.034497 -0.000001)

--------------------------
THERMOCHEMISTRY AT 298.15K
--------------------------

Temperature         ...   298.15 K
Pressure            ...     1.00 atm
Total Mass          ...   169.23 AMU
Quasi RRHO          ...     True
Cut-Off Frequency   ...     1.00 cm^-1

Throughout the following assumptions are being made:
  (1) The electronic state is orbitally nondegenerate
      but the spin degeneracy is treated
  (2) There are no thermally accessible electronically excited states
  (3) Hindered rotations indicated by low frequency modes are not
      treated as such but are treated as vibrations and this may
      cause some error
  (4) All equations used are the standard statistical mechanics
      equations for an ideal gas
  (5) All vibrations are strictly harmonic

freq.      57.05  E(vib)   ...       0.51
freq.      61.20  E(vib)   ...       0.51
freq.     107.96  E(vib)   ...       0.45
freq.     223.52  E(vib)   ...       0.33
freq.     232.94  E(vib)   ...       0.32
freq.     314.53  E(vib)   ...       0.25
freq.     345.74  E(vib)   ...       0.23
freq.     401.50  E(vib)   ...       0.19
freq.     419.62  E(vib)   ...       0.18
freq.     483.91  E(vib)   ...       0.15
freq.     490.36  E(vib)   ...       0.15
freq.     571.49  E(vib)   ...       0.11
freq.     608.07  E(vib)   ...       0.10
freq.     613.52  E(vib)   ...       0.10
freq.     656.29  E(vib)   ...       0.08
freq.     683.82  E(vib)   ...       0.07
freq.     691.60  E(vib)   ...       0.07
freq.     695.61  E(vib)   ...       0.07
freq.     784.83  E(vib)   ...       0.05
freq.     801.48  E(vib)   ...       0.05
freq.     832.93  E(vib)   ...       0.04
freq.     833.74  E(vib)   ...       0.04
freq.     847.90  E(vib)   ...       0.04
freq.     902.07  E(vib)   ...       0.03
freq.     948.31  E(vib)   ...       0.03
freq.     957.82  E(vib)   ...       0.03
freq.    1003.86  E(vib)   ...       0.02
freq.    1005.87  E(vib)   ...       0.02
freq.    1009.18  E(vib)   ...       0.02
freq.    1011.69  E(vib)   ...       0.02
freq.    1036.14  E(vib)   ...       0.02
freq.    1036.69  E(vib)   ...       0.02
freq.    1048.45  E(vib)   ...       0.02
freq.    1052.28  E(vib)   ...       0.02
freq.    1121.13  E(vib)   ...       0.01
freq.    1133.20  E(vib)   ...       0.01
freq.    1181.66  E(vib)   ...       0.01
freq.    1182.09  E(vib)   ...       0.01
freq.    1188.09  E(vib)   ...       0.01
freq.    1204.84  E(vib)   ...       0.01
freq.    1287.04  E(vib)   ...       0.01
freq.    1289.53  E(vib)   ...       0.01
freq.    1350.80  E(vib)   ...       0.01
freq.    1357.96  E(vib)   ...       0.01
freq.    1413.58  E(vib)   ...       0.00
freq.    1426.84  E(vib)   ...       0.00
freq.    1475.78  E(vib)   ...       0.00
freq.    1503.84  E(vib)   ...       0.00
freq.    1512.39  E(vib)   ...       0.00
freq.    1532.72  E(vib)   ...       0.00
freq.    1569.86  E(vib)   ...       0.00
freq.    1624.08  E(vib)   ...       0.00
freq.    1630.77  E(vib)   ...       0.00
freq.    1652.07  E(vib)   ...       0.00
freq.    1681.35  E(vib)   ...       0.00
freq.    3204.90  E(vib)   ...       0.00
freq.    3205.25  E(vib)   ...       0.00
freq.    3222.43  E(vib)   ...       0.00
freq.    3223.19  E(vib)   ...       0.00
freq.    3230.31  E(vib)   ...       0.00
freq.    3231.81  E(vib)   ...       0.00
freq.    3236.99  E(vib)   ...       0.00
freq.    3239.54  E(vib)   ...       0.00
freq.    3242.24  E(vib)   ...       0.00
freq.    3244.20  E(vib)   ...       0.00
freq.    3509.91  E(vib)   ...       0.00

------------
INNER ENERGY
------------

The inner energy is: U= E(el) + E(ZPE) + E(vib) + E(rot) + E(trans)
    E(el)   - is the total energy from the electronic structure calculation
              = E(kin-el) + E(nuc-el) + E(el-el) + E(nuc-nuc)
    E(ZPE)  - the the zero temperature vibrational energy from the frequency calculation
    E(vib)  - the the finite temperature correction to E(ZPE) due to population
              of excited vibrational states
    E(rot)  - is the rotational thermal energy
    E(trans)- is the translational thermal energy

Summary of contributions to the inner energy U:
Electronic energy                ...   -517.41463062 Eh
Zero point energy                ...      0.20021077 Eh     125.63 kcal/mol
Thermal vibrational correction   ...      0.00716608 Eh       4.50 kcal/mol
Thermal rotational correction    ...      0.00141627 Eh       0.89 kcal/mol
Thermal translational correction ...      0.00141627 Eh       0.89 kcal/mol
-----------------------------------------------------------------------
Total thermal energy                   -517.20442123 Eh

Summary of corrections to the electronic energy:
(perhaps to be used in another calculation)
Total thermal correction                  0.00999863 Eh       6.27 kcal/mol
Non-thermal (ZPE) correction              0.20021077 Eh     125.63 kcal/mol
-----------------------------------------------------------------------
Total correction                          0.21020939 Eh     131.91 kcal/mol

--------
ENTHALPY
--------

The enthalpy is H = U + kB*T
                kB is Boltzmann's constant
Total thermal energy              ...   -517.20442123 Eh
Thermal Enthalpy correction       ...      0.00094421 Eh       0.59 kcal/mol
-----------------------------------------------------------------------
Total Enthalpy                    ...   -517.20347702 Eh

Note: Only C1 symmetry has been detected, increase convergence thresholds
      if your molecule has a higher symmetry. Symmetry factor of 1.0 is
      used for the rotational entropy correction.

Note: Rotational entropy computed according to Herzberg
Infrared and Raman Spectra, Chapter V,1, Van Nostrand Reinhold, 1945
Point Group:  C1, Symmetry Number:   1
Rotational constants in cm-1:     0.083302     0.013962     0.012406

Vibrational entropy computed according to the QRRHO of S. Grimme
Chem.Eur.J. 2012 18 9955 using a reference frequency of 100.0 cm-1

-------
ENTROPY
-------

The entropy contributions are T*S = T*(S(el)+S(vib)+S(rot)+S(trans))
     S(el)   - electronic entropy
     S(vib)  - vibrational entropy
     S(rot)  - rotational entropy
     S(trans)- translational entropy
The entropies will be listed as multiplied by the temperature to get
units of energy

Electronic entropy                ...      0.00065446 Eh      0.41 kcal/mol
Vibrational entropy               ...      0.01179819 Eh      7.40 kcal/mol
Rotational entropy                ...      0.01477285 Eh      9.27 kcal/mol
Translational entropy             ...      0.01961630 Eh     12.31 kcal/mol
-----------------------------------------------------------------------

                             ****ORCA TERMINATED NORMALLY****
TOTAL RUN TIME: 0 days 0 hours 17 minutes 0 seconds 757 msec
