                         Program Version 6.0.0  -   RELEASE  -
|  1> !r2SCANh aug-cc-pVTZ d3 TightSCF SlowConv RIJCOSX defgrid2
|  2>
|  3> %pal
|  4> nprocs 15
|  5> end
|  6>
|  7> %scf
|  8> MaxIter 1500
|  9> end
| 10>
| 11> %maxcore 3500
| 12>
| 13> !CPCM
| 14> %cpcm smd true
| 15> SMDsolvent "WATER"
| 16> surfacetype gepol_ses
| 17> rsolv 1.40
| 18> end
| 19>
| 20> * xyz -1 2
| 21> C          -0.01873170749674      0.04093753406553     -3.52858975972066
| 22> C          -0.08481953761759     -0.05154774136999      0.71463088236912
| 23> C           1.06074238697258      0.22514736046509      1.53440757464188
| 24> C           0.96830356526862      0.17882896728935      2.90786805737149
| 25> C          -0.26470551878929     -0.14423885396115      3.51526371962268
| 26> C          -1.33128436816010     -0.40174847455106      2.63782787275971
| 27> N          -1.27485689979469     -0.36556245628455      1.32561828552698
| 28> H           2.02142786234163      0.47540072062604      1.07674146761929
| 29> H           1.85377788752582      0.39275930361097      3.52001278224486
| 30> H          -0.39061214364026     -0.19370360376422      4.60098661165976
| 31> H          -2.31725327762224     -0.66048458620174      3.06445837201647
| 32> C          -0.03491140317629     -0.01288869194778     -0.72111388392229
| 33> C           1.16270029754736      0.31139406157834     -1.44337296366598
| 34> C           1.16651016564823      0.33657884142632     -2.82048186671520
| 35> C          -1.14232412396102     -0.26425404984996     -2.74235450381628
| 36> N          -1.17775822889852     -0.29650902231833     -1.42933091490151
| 37> H           2.08677406925420      0.54347018773518     -0.90745689096374
| 38> H           2.09048709414386      0.58686162656875     -3.35729468270631
| 39> H          -0.06814499795324      0.04684125814958     -4.62156621654479
| 40> H          -2.09470004459233     -0.50226242026639     -3.24971132087547
| 41> *
| 42>
| 43>                          ****END OF INPUT****

CARTESIAN COORDINATES (ANGSTROEM)
---------------------------------
  C     -0.018732    0.040938   -3.528590
  C     -0.084820   -0.051548    0.714631
  C      1.060742    0.225147    1.534408
  C      0.968304    0.178829    2.907868
  C     -0.264706   -0.144239    3.515264
  C     -1.331284   -0.401748    2.637828
  N     -1.274857   -0.365562    1.325618
  H      2.021428    0.475401    1.076741
  H      1.853778    0.392759    3.520013
  H     -0.390612   -0.193704    4.600987
  H     -2.317253   -0.660485    3.064458
  C     -0.034911   -0.012889   -0.721114
  C      1.162700    0.311394   -1.443373
  C      1.166510    0.336579   -2.820482
  C     -1.142324   -0.264254   -2.742355
  N     -1.177758   -0.296509   -1.429331
  H      2.086774    0.543470   -0.907457
  H      2.090487    0.586862   -3.357295
  H     -0.068145    0.046841   -4.621566
  H     -2.094700   -0.502262   -3.249711

 Total Charge           Charge          ....   -1
 Multiplicity           Mult            ....    2
 Number of Electrons    NEL             ....   83
 Basis Dimension        Dim             ....  736

ORBITAL ENERGIES
----------------
                 SPIN UP ORBITALS
  NO   OCC          E(Eh)            E(eV)
   0   1.0000     -14.271058      -388.3352
   1   1.0000     -14.271021      -388.3342
   2   1.0000     -10.169925      -276.7377
   3   1.0000     -10.169907      -276.7373
   4   1.0000     -10.165989      -276.6306
   5   1.0000     -10.165602      -276.6201
   6   1.0000     -10.150013      -276.1959
   7   1.0000     -10.149992      -276.1953
   8   1.0000     -10.142330      -275.9868
   9   1.0000     -10.142316      -275.9864
  10   1.0000     -10.134225      -275.7663
  11   1.0000     -10.134207      -275.7658
  12   1.0000      -0.928065       -25.2539
  13   1.0000      -0.907313       -24.6892
  14   1.0000      -0.780517       -21.2390
  15   1.0000      -0.774184       -21.0666
  16   1.0000      -0.766164       -20.8484
  17   1.0000      -0.709857       -19.3162
  18   1.0000      -0.633023       -17.2254
  19   1.0000      -0.607041       -16.5184
  20   1.0000      -0.578232       -15.7345
  21   1.0000      -0.568785       -15.4774
  22   1.0000      -0.502892       -13.6844
  23   1.0000      -0.465087       -12.6557
  24   1.0000      -0.460684       -12.5358
  25   1.0000      -0.450681       -12.2636
  26   1.0000      -0.422117       -11.4864
  27   1.0000      -0.404576       -11.0091
  28   1.0000      -0.397845       -10.8259
  29   1.0000      -0.392555       -10.6820
  30   1.0000      -0.366972        -9.9858
  31   1.0000      -0.365247        -9.9389
  32   1.0000      -0.364482        -9.9181
  33   1.0000      -0.331263        -9.0141
  34   1.0000      -0.328350        -8.9349
  35   1.0000      -0.282500        -7.6872
  36   1.0000      -0.270368        -7.3571
  37   1.0000      -0.269104        -7.3227
  38   1.0000      -0.237184        -6.4541
  39   1.0000      -0.216164        -5.8821
  40   1.0000      -0.214188        -5.8284
  41   1.0000      -0.094317        -2.5665
  42   0.0000      -0.025855        -0.7035
  43   0.0000      -0.010184        -0.2771
  44   0.0000       0.006876         0.1871
  45   0.0000       0.016378         0.4457
  46   0.0000       0.018963         0.5160

                 SPIN DOWN ORBITALS
  NO   OCC          E(Eh)            E(eV)
   0   1.0000     -14.267332      -388.2338
   1   1.0000     -14.267294      -388.2328
   2   1.0000     -10.171434      -276.7788
   3   1.0000     -10.171416      -276.7783
   4   1.0000     -10.163438      -276.5612
   5   1.0000     -10.163064      -276.5510
   6   1.0000     -10.150036      -276.1965
   7   1.0000     -10.150017      -276.1960
   8   1.0000     -10.141171      -275.9553
   9   1.0000     -10.141156      -275.9549
  10   1.0000     -10.130273      -275.6587
  11   1.0000     -10.130255      -275.6583
  12   1.0000      -0.922293       -25.0969
  13   1.0000      -0.902440       -24.5566
  14   1.0000      -0.775785       -21.1102
  15   1.0000      -0.769216       -20.9314
  16   1.0000      -0.760059       -20.6823
  17   1.0000      -0.705412       -19.1952
  18   1.0000      -0.623562       -16.9680
  19   1.0000      -0.607374       -16.5275
  20   1.0000      -0.576749       -15.6941
  21   1.0000      -0.565459       -15.3869
  22   1.0000      -0.501897       -13.6573
  23   1.0000      -0.463499       -12.6125
  24   1.0000      -0.459025       -12.4907
  25   1.0000      -0.446927       -12.1615
  26   1.0000      -0.420717       -11.4483
  27   1.0000      -0.402877       -10.9629
  28   1.0000      -0.391454       -10.6520
  29   1.0000      -0.382989       -10.4217
  30   1.0000      -0.365865        -9.9557
  31   1.0000      -0.364052        -9.9064
  32   1.0000      -0.354138        -9.6366
  33   1.0000      -0.330049        -8.9811
  34   1.0000      -0.326285        -8.8787
  35   1.0000      -0.264476        -7.1968
  36   1.0000      -0.258439        -7.0325
  37   1.0000      -0.257025        -6.9940
  38   1.0000      -0.233490        -6.3536
  39   1.0000      -0.210437        -5.7263
  40   1.0000      -0.197475        -5.3736
  41   0.0000      -0.045494        -1.2380
  42   0.0000      -0.025014        -0.6807
  43   0.0000      -0.005046        -0.1373
  44   0.0000       0.008594         0.2338
  45   0.0000       0.021070         0.5733

MULLIKEN ATOMIC CHARGES AND SPIN POPULATIONS
--------------------------------------------
   0 C :   -0.359143    0.268543
   1 C :    1.503609    0.159887
   2 C :   -0.544915    0.089332
   3 C :   -0.859488   -0.062625
   4 C :   -0.358908    0.268530
   5 C :   -0.804514   -0.097056
   6 N :   -0.711967    0.153676
   7 H :   -0.005390    0.010736
   8 H :    0.483331   -0.009760
   9 H :    0.210519   -0.008308
  10 H :    0.583756   -0.003975
  11 C :    1.514509    0.159291
  12 C :   -0.544069    0.089535
  13 C :   -0.854604   -0.062704
  14 C :   -0.802765   -0.097425
  15 N :   -0.714359    0.153761
  16 H :   -0.003519    0.010401
  17 H :    0.474303   -0.009724
  18 H :    0.212112   -0.008171
  19 H :    0.581501   -0.003944
Sum of atomic charges         :   -1.0000000

LOEWDIN ATOMIC CHARGES AND SPIN POPULATIONS
-------------------------------------------
   0 C :    0.148624    0.113610
   1 C :   -0.364578    0.121414
   2 C :    0.164948    0.062313
   3 C :    0.133071    0.046965
   4 C :    0.148575    0.113620
   5 C :   -0.086002    0.013338
   6 N :    0.303482    0.105868
   7 H :   -0.212866    0.010232
   8 H :   -0.180239    0.003202
   9 H :   -0.204947    0.029244
  10 H :   -0.201502   -0.006165
  11 C :   -0.364515    0.121403
  12 C :    0.164927    0.062307
  13 C :    0.133133    0.046921
  14 C :   -0.086065    0.013350
  15 N :    0.303545    0.105861
  16 H :   -0.212906    0.010241
  17 H :   -0.180197    0.003191
  18 H :   -0.204950    0.029246
  19 H :   -0.201539   -0.006161

  Mayer bond orders larger than 0.100000
B(  0-C , 13-C ) :   1.0193 B(  0-C , 14-C ) :   0.6560 B(  0-C , 15-N ) :  -0.1813
B(  0-C , 16-H ) :  -0.1013 B(  0-C , 18-H ) :   1.0750 B(  1-C ,  2-C ) :   0.3641
B(  1-C ,  3-C ) :  -0.2134 B(  1-C ,  5-C ) :  -0.3273 B(  1-C ,  6-N ) :  -0.2751
B(  1-C ,  7-H ) :  -0.2149 B(  1-C , 10-H ) :   0.1363 B(  1-C , 11-C ) :   0.4513
B(  1-C , 13-C ) :   0.1190 B(  1-C , 15-N ) :   0.3398 B(  1-C , 16-H ) :  -0.1007
B(  2-C ,  3-C ) :   1.1981 B(  2-C ,  5-C ) :  -0.2287 B(  2-C ,  7-H ) :   1.6281
B(  2-C , 10-H ) :   0.1051 B(  2-C , 12-C ) :  -0.1426 B(  2-C , 16-H ) :  -0.1550
B(  3-C ,  4-C ) :   1.0180 B(  3-C ,  5-C ) :   0.4668 B(  3-C ,  7-H ) :  -0.2978
B(  3-C ,  8-H ) :   0.6181 B(  3-C ,  9-H ) :  -0.1230 B(  3-C , 11-C ) :   0.1153
B(  4-C ,  5-C ) :   0.6555 B(  4-C ,  6-N ) :  -0.1827 B(  4-C ,  7-H ) :  -0.1022
B(  4-C ,  9-H ) :   1.0760 B(  5-C ,  6-N ) :   1.6663 B(  5-C ,  7-H ) :   0.1071
B(  5-C ,  8-H ) :  -0.1131 B(  5-C , 10-H ) :   0.3393 B(  5-C , 14-C ) :   0.1060
B(  6-N , 10-H ) :  -0.1177 B(  6-N , 11-C ) :   0.3340 B(  6-N , 15-N ) :  -0.2999
B(  7-H ,  9-H ) :   0.1345 B(  7-H , 12-C ) :  -0.1531 B( 11-C , 12-C ) :   0.3601
B( 11-C , 13-C ) :  -0.2147 B( 11-C , 14-C ) :  -0.3267 B( 11-C , 15-N ) :  -0.2851
B( 11-C , 16-H ) :  -0.2156 B( 11-C , 19-H ) :   0.1357 B( 12-C , 13-C ) :   1.1916
B( 12-C , 14-C ) :  -0.2241 B( 12-C , 16-H ) :   1.6274 B( 12-C , 19-H ) :   0.1062
B( 13-C , 14-C ) :   0.4633 B( 13-C , 16-H ) :  -0.3011 B( 13-C , 17-H ) :   0.6316
B( 13-C , 18-H ) :  -0.1233 B( 14-C , 15-N ) :   1.6627 B( 14-C , 16-H ) :   0.1069
B( 14-C , 17-H ) :  -0.1141 B( 14-C , 19-H ) :   0.3426 B( 15-N , 19-H ) :  -0.1161
B( 16-H , 18-H ) :   0.1328

Dispersion correction           -0.007383347
FINAL SINGLE POINT ENERGY      -495.344563728655

DIPOLE MOMENT
-------------

Method             : SCF
Type of density    : Electron Density
Multiplicity       :   2
Irrep              :   0
Energy             :  -495.3371803820744503 Eh
Relativity type    :
Basis              : AO
                                X                 Y                 Z
Electronic contribution:     -1.741773083      -0.448427140      -0.072745198
Nuclear contribution   :      3.614122503       0.929387637       0.150326208
                        -----------------------------------------
Total Dipole Moment    :      1.872349420       0.480960497       0.077581011
                        -----------------------------------------
Magnitude (a.u.)       :      1.934692266
Magnitude (Debye)      :      4.917596933

Rotational constants in cm-1:             0.097712             0.019197             0.016045
Rotational constants in MHz :          2929.325358           575.521768           481.017920

                             ****ORCA TERMINATED NORMALLY****
TOTAL RUN TIME: 0 days 0 hours 6 minutes 26 seconds 357 msec
