                         Program Version 6.0.0  -   RELEASE  -
|  1> !TPSSh aug-cc-pVTZ d3 TightSCF SlowConv RIJCOSX defgrid2
|  2>
|  3> %pal
|  4> nprocs 4
|  5> end
|  6>
|  7> %scf
|  8> MaxIter 1500
|  9> end
| 10>
| 11> %maxcore 3000
| 12>
| 13> !CPCM
| 14> %cpcm smd true
| 15> SMDsolvent "MeCN"
| 16> surfacetype gepol_ses
| 17> rsolv 2.19
| 18> end
| 19>
| 20> * xyz -1 2
| 21> C          -1.65840506329252      1.23315632851947      0.02601526537403
| 22> C          -2.42578649114951      0.03281585518203      0.08528804223097
| 23> C          -1.67500855485910     -1.17845195322716      0.12036686377485
| 24> C          -0.29808583706699     -1.18487448797938      0.09449761529292
| 25> C           0.47768362470154      0.01218058376897      0.03640458659712
| 26> C          -0.28519866523432      1.22292049595471      0.00549364199425
| 27> H           0.23475594749759      2.18352828017466     -0.06045863687846
| 28> C           1.92437178707837      0.00115458002986      0.01100117558003
| 29> C           2.67883904782948     -1.19675573826742     -0.15101120804037
| 30> C           4.06549110019082     -1.20386096938929     -0.17390692614329
| 31> C           4.80148582635897     -0.01911609182057     -0.03832527138067
| 32> C           4.08714619159076      1.17581153913523      0.12162078849715
| 33> C           2.70053896682853      1.18836482105812      0.14598455531242
| 34> H           2.19415808930578      2.14532112879358      0.29368951522032
| 35> H           4.62811245028724      2.12283575750504      0.23701258282278
| 36> H           5.89571186828997     -0.02674525345583     -0.05713878250098
| 37> H           4.58896204524971     -2.15823787143737     -0.30821999533445
| 38> H           2.15467602469528     -2.14659846493838     -0.28283079681457
| 39> H           0.20917374243606     -2.15301705967323      0.14488479784911
| 40> H          -2.19771917366060     -2.13934491080503      0.17750905700078
| 41> C          -3.86642076140458      0.10366572155671      0.10496388365322
| 42> O          -4.50000624052699      1.17092445235144      0.07778084872509
| 43> C          -4.64653285281065     -1.20806217086235      0.16034754144994
| 44> H          -5.72082859909169     -0.96357086012156      0.16151446988558
| 45> H          -4.42797764815507     -1.85931891363364     -0.70698861916337
| 46> H          -4.41233005196803     -1.79426891356283      1.06923738121782
| 47> H          -2.21281117312006      2.17574341514422     -0.01014627622221
| 48> *
| 49>
| 50>                          ****END OF INPUT****

CARTESIAN COORDINATES (ANGSTROEM)
---------------------------------
  C     -1.658405    1.233156    0.026015
  C     -2.425786    0.032816    0.085288
  C     -1.675009   -1.178452    0.120367
  C     -0.298086   -1.184874    0.094498
  C      0.477684    0.012181    0.036405
  C     -0.285199    1.222920    0.005494
  H      0.234756    2.183528   -0.060459
  C      1.924372    0.001155    0.011001
  C      2.678839   -1.196756   -0.151011
  C      4.065491   -1.203861   -0.173907
  C      4.801486   -0.019116   -0.038325
  C      4.087146    1.175812    0.121621
  C      2.700539    1.188365    0.145985
  H      2.194158    2.145321    0.293690
  H      4.628112    2.122836    0.237013
  H      5.895712   -0.026745   -0.057139
  H      4.588962   -2.158238   -0.308220
  H      2.154676   -2.146598   -0.282831
  H      0.209174   -2.153017    0.144885
  H     -2.197719   -2.139345    0.177509
  C     -3.866421    0.103666    0.104964
  O     -4.500006    1.170924    0.077781
  C     -4.646533   -1.208062    0.160348
  H     -5.720829   -0.963571    0.161514
  H     -4.427978   -1.859319   -0.706989
  H     -4.412330   -1.794269    1.069237
  H     -2.212811    2.175743   -0.010146

 Total Charge           Charge          ....   -1
 Multiplicity           Mult            ....    2
 Number of Electrons    NEL             ....  105
 Basis Dimension        Dim             ....  966

ORBITAL ENERGIES
----------------
                 SPIN UP ORBITALS
  NO   OCC          E(Eh)            E(eV)
   0   1.0000     -18.990504      -516.7579
   1   1.0000     -10.144573      -276.0479
   2   1.0000     -10.111851      -275.1575
   3   1.0000     -10.104570      -274.9593
   4   1.0000     -10.104480      -274.9569
   5   1.0000     -10.100438      -274.8469
   6   1.0000     -10.100397      -274.8458
   7   1.0000     -10.099701      -274.8268
   8   1.0000     -10.098890      -274.8048
   9   1.0000     -10.096776      -274.7472
  10   1.0000     -10.095418      -274.7103
  11   1.0000     -10.095031      -274.6998
  12   1.0000     -10.091963      -274.6163
  13   1.0000     -10.089939      -274.5612
  14   1.0000     -10.084986      -274.4264
  15   1.0000      -0.962859       -26.2007
  16   1.0000      -0.827915       -22.5287
  17   1.0000      -0.805525       -21.9194
  18   1.0000      -0.744045       -20.2465
  19   1.0000      -0.714988       -19.4558
  20   1.0000      -0.706761       -19.2319
  21   1.0000      -0.698806       -19.0155
  22   1.0000      -0.669939       -18.2300
  23   1.0000      -0.604130       -16.4392
  24   1.0000      -0.579621       -15.7723
  25   1.0000      -0.551490       -15.0068
  26   1.0000      -0.544160       -14.8074
  27   1.0000      -0.508041       -13.8245
  28   1.0000      -0.489560       -13.3216
  29   1.0000      -0.450730       -12.2650
  30   1.0000      -0.431331       -11.7371
  31   1.0000      -0.425978       -11.5914
  32   1.0000      -0.398718       -10.8497
  33   1.0000      -0.397425       -10.8145
  34   1.0000      -0.396393       -10.7864
  35   1.0000      -0.393048       -10.6954
  36   1.0000      -0.388807       -10.5800
  37   1.0000      -0.374193       -10.1823
  38   1.0000      -0.361450        -9.8356
  39   1.0000      -0.355630        -9.6772
  40   1.0000      -0.352158        -9.5827
  41   1.0000      -0.335601        -9.1322
  42   1.0000      -0.328289        -8.9332
  43   1.0000      -0.312831        -8.5126
  44   1.0000      -0.311903        -8.4873
  45   1.0000      -0.310813        -8.4576
  46   1.0000      -0.281175        -7.6511
  47   1.0000      -0.262082        -7.1316
  48   1.0000      -0.239945        -6.5292
  49   1.0000      -0.233616        -6.3570
  50   1.0000      -0.202009        -5.4969
  51   1.0000      -0.199526        -5.4294
  52   1.0000      -0.094338        -2.5671
  53   0.0000      -0.020287        -0.5520
  54   0.0000      -0.017445        -0.4747
  55   0.0000      -0.004079        -0.1110
  56   0.0000       0.003350         0.0912
  57   0.0000       0.004134         0.1125

                 SPIN DOWN ORBITALS
  NO   OCC          E(Eh)            E(eV)
   0   1.0000     -18.986320      -516.6440
   1   1.0000     -10.142130      -275.9814
   2   1.0000     -10.111964      -275.1605
   3   1.0000     -10.105287      -274.9788
   4   1.0000     -10.105189      -274.9762
   5   1.0000     -10.098965      -274.8068
   6   1.0000     -10.098940      -274.8061
   7   1.0000     -10.096689      -274.7449
   8   1.0000     -10.096160      -274.7305
   9   1.0000     -10.095794      -274.7205
  10   1.0000     -10.095628      -274.7160
  11   1.0000     -10.095081      -274.7011
  12   1.0000     -10.090789      -274.5843
  13   1.0000     -10.090163      -274.5673
  14   1.0000     -10.083078      -274.3745
  15   1.0000      -0.955802       -26.0087
  16   1.0000      -0.825248       -22.4561
  17   1.0000      -0.802913       -21.8484
  18   1.0000      -0.739472       -20.1221
  19   1.0000      -0.713159       -19.4060
  20   1.0000      -0.704403       -19.1678
  21   1.0000      -0.695528       -18.9263
  22   1.0000      -0.667851       -18.1731
  23   1.0000      -0.598212       -16.2782
  24   1.0000      -0.578989       -15.7551
  25   1.0000      -0.548432       -14.9236
  26   1.0000      -0.543383       -14.7862
  27   1.0000      -0.505410       -13.7529
  28   1.0000      -0.487922       -13.2770
  29   1.0000      -0.448474       -12.2036
  30   1.0000      -0.429845       -11.6967
  31   1.0000      -0.424015       -11.5380
  32   1.0000      -0.397417       -10.8143
  33   1.0000      -0.396432       -10.7875
  34   1.0000      -0.391875       -10.6635
  35   1.0000      -0.388361       -10.5678
  36   1.0000      -0.388055       -10.5595
  37   1.0000      -0.373602       -10.1662
  38   1.0000      -0.355149        -9.6641
  39   1.0000      -0.352828        -9.6009
  40   1.0000      -0.350676        -9.5424
  41   1.0000      -0.328173        -8.9300
  42   1.0000      -0.327035        -8.8991
  43   1.0000      -0.311456        -8.4751
  44   1.0000      -0.310770        -8.4565
  45   1.0000      -0.296120        -8.0578
  46   1.0000      -0.280516        -7.6332
  47   1.0000      -0.249688        -6.7944
  48   1.0000      -0.234685        -6.3861
  49   1.0000      -0.226714        -6.1692
  50   1.0000      -0.196562        -5.3487
  51   1.0000      -0.188656        -5.1336
  52   0.0000      -0.056402        -1.5348
  53   0.0000      -0.017777        -0.4837
  54   0.0000      -0.002422        -0.0659
  55   0.0000      -0.001774        -0.0483
  56   0.0000       0.005208         0.1417

MULLIKEN ATOMIC CHARGES AND SPIN POPULATIONS
--------------------------------------------
   0 C :   -1.083597    0.106590
   1 C :    1.172698    0.102684
   2 C :   -0.666946    0.096861
   3 C :   -0.812615    0.011311
   4 C :    1.618555    0.216531
   5 C :   -0.704247    0.006057
   6 H :    0.111450   -0.011387
   7 C :    1.953860   -0.050538
   8 C :   -0.731951    0.126162
   9 C :   -0.759265   -0.057734
  10 C :   -0.283700    0.143786
  11 C :   -0.713470   -0.057031
  12 C :   -0.720119    0.122314
  13 H :    0.098277    0.001166
  14 H :    0.317539   -0.004873
  15 H :    0.343913    0.000224
  16 H :    0.303387   -0.004757
  17 H :    0.090376    0.002495
  18 H :    0.114553   -0.010717
  19 H :   -0.204322   -0.001744
  20 C :    0.952466    0.119914
  21 O :   -1.188060    0.159324
  22 C :   -0.320749   -0.020309
  23 H :   -0.041971   -0.001780
  24 H :    0.173829    0.007114
  25 H :    0.180571    0.006322
  26 H :   -0.200462   -0.007986
Sum of atomic charges         :   -1.0000000

LOEWDIN ATOMIC CHARGES AND SPIN POPULATIONS
-------------------------------------------
   0 C :    0.156727    0.058337
   1 C :   -0.192455    0.105636
   2 C :    0.167968    0.058950
   3 C :    0.181782    0.039867
   4 C :   -0.136107    0.114281
   5 C :    0.179547    0.036510
   6 H :   -0.207549    0.001780
   7 C :   -0.136630    0.052600
   8 C :    0.185236    0.045691
   9 C :    0.157789    0.013162
  10 C :    0.160184    0.064217
  11 C :    0.157902    0.013300
  12 C :    0.185206    0.045378
  13 H :   -0.206849    0.009924
  14 H :   -0.179122   -0.002864
  15 H :   -0.189722    0.016863
  16 H :   -0.179073   -0.002923
  17 H :   -0.206545    0.010083
  18 H :   -0.206431    0.002767
  19 H :   -0.194797    0.009776
  20 C :   -0.644585    0.125333
  21 O :    0.384102    0.140074
  22 C :    0.515654    0.021053
  23 H :   -0.197763   -0.000463
  24 H :   -0.175242    0.005257
  25 H :   -0.174962    0.005306
  26 H :   -0.204265    0.010106

  Mayer bond orders larger than 0.100000
B(  0-C ,  1-C ) :   0.3925 B(  0-C ,  2-C ) :  -0.3307 B(  0-C ,  4-C ) :  -0.3187
B(  0-C ,  5-C ) :   1.7003 B(  0-C ,  6-H ) :  -0.1332 B(  0-C , 26-H ) :   1.2632
B(  1-C ,  2-C ) :   0.3037 B(  1-C ,  3-C ) :   0.1291 B(  1-C ,  4-C ) :  -0.3083
B(  1-C ,  5-C ) :   0.1710 B(  1-C ,  7-C ) :   0.1286 B(  1-C , 19-H ) :  -0.2208
B(  1-C , 20-C ) :   0.6640 B(  1-C , 21-O ) :   0.5576 B(  1-C , 26-H ) :  -0.1207
B(  2-C ,  3-C ) :   1.4147 B(  2-C ,  4-C ) :  -0.2634 B(  2-C ,  5-C ) :  -0.1571
B(  2-C ,  7-C ) :   0.1617 B(  2-C , 18-H ) :  -0.1143 B(  2-C , 19-H ) :   1.6029
B(  2-C , 20-C ) :   0.1648 B(  2-C , 26-H ) :   0.2374 B(  3-C ,  5-C ) :  -0.6255
B(  3-C ,  6-H ) :  -0.1037 B(  3-C ,  9-C ) :  -0.1181 B(  3-C , 17-H ) :   0.1625
B(  3-C , 18-H ) :   1.0059 B(  3-C , 26-H ) :   0.1778 B(  4-C ,  5-C ) :   0.1430
B(  4-C ,  7-C ) :   0.3752 B(  4-C ,  8-C ) :   0.3429 B(  4-C ,  9-C ) :   0.1506
B(  4-C , 10-C ) :   0.1772 B(  4-C , 11-C ) :   0.1968 B(  4-C , 12-C ) :   0.1907
B(  4-C , 13-H ) :  -0.2253 B(  4-C , 17-H ) :  -0.2193 B(  4-C , 20-C ) :   0.2614
B(  5-C ,  6-H ) :   1.1271 B(  5-C , 12-C ) :   0.1158 B(  5-C , 13-H ) :   0.1158
B(  5-C , 26-H ) :  -0.1628 B(  6-H ,  7-C ) :  -0.2828 B(  6-H , 12-C ) :   0.1505
B(  6-H , 13-H ) :   0.1164 B(  7-C ,  9-C ) :  -0.2802 B(  7-C , 10-C ) :  -0.2272
B(  7-C , 11-C ) :  -0.2536 B(  7-C , 13-H ) :   0.1310 B(  7-C , 17-H ) :   0.1345
B(  7-C , 18-H ) :  -0.2355 B(  8-C ,  9-C ) :   1.4293 B(  8-C , 12-C ) :  -0.3999
B(  8-C , 17-H ) :   1.0795 B(  8-C , 18-H ) :   0.1026 B(  9-C , 10-C ) :   1.3254
B(  9-C , 11-C ) :   0.1519 B(  9-C , 16-H ) :   0.6421 B( 10-C , 11-C ) :   1.3144
B( 10-C , 15-H ) :   0.6516 B( 11-C , 12-C ) :   1.4230 B( 11-C , 14-H ) :   0.6319
B( 12-C , 13-H ) :   1.0636 B( 12-C , 20-C ) :   0.1133 B( 13-H , 18-H ) :   0.1076
B( 13-H , 19-H ) :  -0.1511 B( 13-H , 26-H ) :  -0.1195 B( 17-H , 18-H ) :   0.1162
B( 17-H , 19-H ) :  -0.1309 B( 19-H , 20-C ) :  -0.1136 B( 19-H , 26-H ) :   0.1673
B( 20-C , 22-C ) :   1.0366 B( 20-C , 26-H ) :  -0.1489 B( 21-O , 26-H ) :   0.2403
B( 22-C , 23-H ) :   1.0269 B( 22-C , 24-H ) :   0.9649 B( 22-C , 25-H ) :   0.9606

Dispersion correction           -0.038383721
FINAL SINGLE POINT ENERGY      -616.349534463345

DIPOLE MOMENT
-------------

Method             : SCF
Type of density    : Electron Density
Multiplicity       :   2
Irrep              :   0
Energy             :  -616.3111507424624733 Eh
Relativity type    :
Basis              : AO
                                X                 Y                 Z
Electronic contribution:      1.990951007       3.054358880      -0.131067548
Nuclear contribution   :      0.834188955      -4.415620198       0.130351873
                        -----------------------------------------
Total Dipole Moment    :      2.825139963      -1.361261318      -0.000715675
                        -----------------------------------------
Magnitude (a.u.)       :      3.135992458
Magnitude (Debye)      :      7.971059357

Rotational constants in cm-1:             0.074676             0.008546             0.007689
Rotational constants in MHz :          2238.715412           256.196904           230.518012

                             ****ORCA TERMINATED NORMALLY****
TOTAL RUN TIME: 0 days 0 hours 18 minutes 12 seconds 689 msec
