                         Program Version 6.0.0  -   RELEASE  -
|  1> !PBE0 def2-SV(p) Opt Freq d3 TightSCF SlowConv RIJCOSX defgrid2
|  2>
|  3> %pal
|  4> nprocs 4
|  5> end
|  6>
|  7> %scf
|  8> MaxIter 1500
|  9> end
| 10>
| 11> %maxcore 3000
| 12>
| 13>
| 14>
| 15> * xyz 0 1
| 16> C    -0.0424631    1.1979504   -0.0021440
| 17> C    -1.4234153    1.2065282   -0.0059665
| 18> C    -2.1525599    0.0210226   -0.0082892
| 19> C    -1.4564169   -1.1851936   -0.0056989
| 20> C    -0.0781762   -1.2014182   -0.0016551
| 21> C     0.6552918   -0.0111489   -0.0003074
| 22> C     2.1314424   -0.0971780    0.0018341
| 23> O     2.7076397   -1.1729442    0.0026517
| 24> C     2.9035169    1.1990044    0.0031334
| 25> H     3.9687949    0.9818808    0.0054928
| 26> H     2.6516744    1.7807902    0.8866321
| 27> H     2.6555545    1.7800569   -0.8819589
| 28> H     0.4643351   -2.1357989   -0.0009905
| 29> H    -2.0039011   -2.1164208   -0.0079643
| 30> C    -3.6481734    0.0374390    0.0092849
| 31> H    -4.0032609   -0.0812704    1.0333555
| 32> H    -4.0323690    0.9780502   -0.3764462
| 33> H    -4.0498278   -0.7835347   -0.5799730
| 34> H    -1.9486003    2.1505784   -0.0083444
| 35> H     0.4866177    2.1372918   -0.0020488
| 36> *
| 37>
| 38>                          ****END OF INPUT****
 Total Charge           Charge          ....    0
 Multiplicity           Mult            ....    1
 Number of Electrons    NEL             ....   72
Dispersion correction           -0.018113195
FINAL SINGLE POINT ENERGY      -423.401868428015
Dispersion correction             ... done (  0.1 sec)
Dispersion correction           -0.017999959
FINAL SINGLE POINT ENERGY      -423.404165784623
Dispersion correction             ... done (  0.0 sec)
Dispersion correction           -0.017982337
FINAL SINGLE POINT ENERGY      -423.404250167247
Dispersion correction             ... done (  0.1 sec)
FINAL SINGLE POINT ENERGY      -423.404268828717
Dispersion correction             ... done (  0.1 sec)
Dispersion correction           -0.017977676
FINAL SINGLE POINT ENERGY      -423.404266434094
Dispersion correction             ... done (  0.1 sec)
Dispersion correction           -0.017979763
FINAL SINGLE POINT ENERGY      -423.404274810294
Dispersion correction             ... done (  0.1 sec)
                    ***********************HURRAY********************

CARTESIAN COORDINATES (ANGSTROEM)
---------------------------------
  C     -0.046472    1.201750   -0.005531
  C     -1.438706    1.212396   -0.011412
  C     -2.170270    0.019471   -0.010382
  C     -1.460745   -1.190721   -0.009068
  C     -0.073262   -1.206221   -0.003049
  C      0.654812   -0.009206   -0.000422
  C      2.147574   -0.091990    0.004023
  O      2.706712   -1.167111    0.007009
  C      2.938976    1.195880    0.005480
  H      4.010969    0.950483    0.010578
  H      2.699500    1.807198    0.893139
  H      2.707392    1.804227   -0.886304
  H      0.485386   -2.145909   -0.003361
  H     -2.012685   -2.136459   -0.015309
  C     -3.671091    0.029915    0.016171
  H     -4.045114   -0.095065    1.049539
  H     -4.077329    0.979364   -0.369303
  H     -4.090692   -0.795143   -0.583641
  H     -1.970599    2.169198   -0.019315
  H      0.491344    2.153628   -0.008246

 Multiplicity           Mult            ....    1
 Number of Electrons    NEL             ....   72
 Basis Dimension        Dim             ....  160

ORBITAL ENERGIES
----------------

  NO   OCC          E(Eh)            E(eV)
   0   2.0000     -19.194505      -522.3090
   1   2.0000     -10.319140      -280.7981
   2   2.0000     -10.259401      -279.1725
   3   2.0000     -10.250383      -278.9271
   4   2.0000     -10.245103      -278.7834
   5   2.0000     -10.243739      -278.7463
   6   2.0000     -10.242221      -278.7050
   7   2.0000     -10.241453      -278.6841
   8   2.0000     -10.236273      -278.5432
   9   2.0000     -10.230404      -278.3834
  10   2.0000      -1.057132       -28.7660
  11   2.0000      -0.888979       -24.1904
  12   2.0000      -0.809850       -22.0371
  13   2.0000      -0.772879       -21.0311
  14   2.0000      -0.757175       -20.6038
  15   2.0000      -0.712188       -19.3796
  16   2.0000      -0.630924       -17.1683
  17   2.0000      -0.622830       -16.9481
  18   2.0000      -0.569757       -15.5039
  19   2.0000      -0.514431       -13.9984
  20   2.0000      -0.495364       -13.4795
  21   2.0000      -0.469522       -12.7763
  22   2.0000      -0.460485       -12.5304
  23   2.0000      -0.458870       -12.4865
  24   2.0000      -0.443350       -12.0642
  25   2.0000      -0.442568       -12.0429
  26   2.0000      -0.436497       -11.8777
  27   2.0000      -0.405927       -11.0458
  28   2.0000      -0.400722       -10.9042
  29   2.0000      -0.390466       -10.6251
  30   2.0000      -0.374137       -10.1808
  31   2.0000      -0.364071        -9.9069
  32   2.0000      -0.357667        -9.7326
  33   2.0000      -0.276205        -7.5159
  34   2.0000      -0.265910        -7.2358
  35   2.0000      -0.263338        -7.1658
  36   0.0000      -0.052765        -1.4358
  37   0.0000      -0.011531        -0.3138
  38   0.0000       0.040883         1.1125
  39   0.0000       0.067743         1.8434
  40   0.0000       0.079322         2.1585

MULLIKEN ATOMIC CHARGES
-----------------------
   0 C :   -0.133720
   1 C :   -0.122789
   2 C :    0.002820
   3 C :   -0.120853
   4 C :   -0.111655
   5 C :    0.001966
   6 C :    0.083891
   7 O :   -0.217121
   8 C :   -0.341384
   9 H :    0.149999
  10 H :    0.151241
  11 H :    0.151367
  12 H :    0.112659
  13 H :    0.088214
  14 C :   -0.296610
  15 H :    0.151584
  16 H :    0.134788
  17 H :    0.139294
  18 H :    0.084055
  19 H :    0.092254
Sum of atomic charges:    0.0000000

LOEWDIN ATOMIC CHARGES
----------------------
   0 C :   -0.107634
   1 C :   -0.129761
   2 C :   -0.035206
   3 C :   -0.125510
   4 C :   -0.084451
   5 C :   -0.094834
   6 C :    0.069296
   7 O :   -0.154655
   8 C :   -0.368992
   9 H :    0.141241
  10 H :    0.142635
  11 H :    0.142705
  12 H :    0.141975
  13 H :    0.129253
  14 C :   -0.328187
  15 H :    0.140373
  16 H :    0.130057
  17 H :    0.133269
  18 H :    0.128128
  19 H :    0.130298

  Mayer bond orders larger than 0.100000
B(  0-C ,  1-C ) :   1.3958 B(  0-C ,  5-C ) :   1.3724 B(  0-C , 19-H ) :   0.9477
B(  1-C ,  2-C ) :   1.4031 B(  1-C , 18-H ) :   0.9603 B(  2-C ,  3-C ) :   1.3687
B(  2-C , 14-C ) :   1.0762 B(  3-C ,  4-C ) :   1.3921 B(  3-C , 13-H ) :   0.9671
B(  4-C ,  5-C ) :   1.3803 B(  4-C , 12-H ) :   0.9534 B(  5-C ,  6-C ) :   0.9326
B(  6-C ,  7-O ) :   2.1347 B(  6-C ,  8-C ) :   1.0967 B(  8-C ,  9-H ) :   0.9360
B(  8-C , 10-H ) :   0.9233 B(  8-C , 11-H ) :   0.9231 B( 14-C , 15-H ) :   0.9324
B( 14-C , 16-H ) :   0.9476 B( 14-C , 17-H ) :   0.9440

Dispersion correction           -0.017980131
FINAL SINGLE POINT ENERGY      -423.404274943271

DIPOLE MOMENT
-------------

Method             : SCF
Type of density    : Electron Density
Multiplicity       :   1
Irrep              :   0
Energy             :  -423.3862948122633156 Eh
Relativity type    :
Basis              : AO
                                X                 Y                 Z
Electronic contribution:      4.435579073      -3.504084455      -0.042909558
Nuclear contribution   :     -5.402543283       4.383900218       0.062989255
                        -----------------------------------------
Total Dipole Moment    :     -0.966964210       0.879815763       0.020079697
                        -----------------------------------------
Magnitude (a.u.)       :      1.307478014
Magnitude (Debye)      :      3.323345000

VIBRATIONAL FREQUENCIES
-----------------------

Scaling factor for frequencies =  1.000000000  (already applied!)

     0:       0.00 cm**-1
     1:       0.00 cm**-1
     2:       0.00 cm**-1
     3:       0.00 cm**-1
     4:       0.00 cm**-1
     5:       0.00 cm**-1
     6:      31.33 cm**-1
     7:      69.75 cm**-1
     8:     102.26 cm**-1
     9:     175.38 cm**-1
    10:     192.55 cm**-1
    11:     268.69 cm**-1
    12:     336.98 cm**-1
    13:     357.17 cm**-1
    14:     420.62 cm**-1
    15:     464.78 cm**-1
    16:     479.76 cm**-1
    17:     582.61 cm**-1
    18:     606.93 cm**-1
    19:     649.90 cm**-1
    20:     694.64 cm**-1
    21:     751.19 cm**-1
    22:     835.08 cm**-1
    23:     841.01 cm**-1
    24:     869.92 cm**-1
    25:     970.20 cm**-1
    26:     986.25 cm**-1
    27:    1011.62 cm**-1
    28:    1016.98 cm**-1
    29:    1034.92 cm**-1
    30:    1053.10 cm**-1
    31:    1063.91 cm**-1
    32:    1106.92 cm**-1
    33:    1135.75 cm**-1
    34:    1197.68 cm**-1
    35:    1258.37 cm**-1
    36:    1309.02 cm**-1
    37:    1325.29 cm**-1
    38:    1383.46 cm**-1
    39:    1401.20 cm**-1
    40:    1409.73 cm**-1
    41:    1452.22 cm**-1
    42:    1455.25 cm**-1
    43:    1462.73 cm**-1
    44:    1472.29 cm**-1
    45:    1483.09 cm**-1
    46:    1566.03 cm**-1
    47:    1657.70 cm**-1
    48:    1702.66 cm**-1
    49:    1836.34 cm**-1
    50:    3035.83 cm**-1
    51:    3045.02 cm**-1
    52:    3118.68 cm**-1
    53:    3133.18 cm**-1
    54:    3147.84 cm**-1
    55:    3178.04 cm**-1
    56:    3191.06 cm**-1
    57:    3191.91 cm**-1
    58:    3217.28 cm**-1
    59:    3225.49 cm**-1

IR SPECTRUM
-----------

 Mode   freq       eps      Int      T**2         TX        TY        TZ
       cm**-1   L/(mol*cm) km/mol    a.u.
----------------------------------------------------------------------------
  6:     31.33   0.000122    0.61  0.001211  (-0.002415  0.027556  0.021109)
  7:     69.75   0.000539    2.73  0.002414  (-0.000203  0.002275 -0.049076)
  8:    102.26   0.000001    0.00  0.000002  ( 0.001081 -0.000806 -0.000252)
  9:    175.38   0.000079    0.40  0.000140  (-0.000064 -0.000085  0.011852)
 10:    192.55   0.000778    3.93  0.001260  ( 0.035375  0.002946  0.000290)
 11:    268.69   0.000282    1.42  0.000327  ( 0.000345 -0.000330  0.018078)
 12:    336.98   0.000047    0.24  0.000044  (-0.005893  0.003041 -0.000054)
 13:    357.17   0.000428    2.17  0.000374  ( 0.017275  0.008710 -0.000078)
 14:    420.62   0.000001    0.01  0.000001  ( 0.000630  0.000771 -0.000017)
 15:    464.78   0.000210    1.06  0.000141  (-0.001273  0.011388 -0.003109)
 16:    479.76   0.001230    6.21  0.000800  (-0.002394  0.000940  0.028164)
 17:    582.61   0.003921   19.81  0.002100  ( 0.044172  0.012200  0.000293)
 18:    606.93   0.002333   11.79  0.001200  ( 0.000175  0.000422  0.034635)
 19:    649.90   0.000115    0.58  0.000055  ( 0.004221  0.006113  0.000067)
 20:    694.64   0.001612    8.14  0.000724  ( 0.026149  0.006058 -0.001867)
 21:    751.19   0.000469    2.37  0.000195  (-0.003397 -0.000124 -0.013545)
 22:    835.08   0.001964    9.93  0.000734  ( 0.005422 -0.001072  0.026525)
 23:    841.01   0.003424   17.31  0.001271  (-0.000246  0.001220  0.035625)
 24:    869.92   0.000572    2.89  0.000205  ( 0.001164 -0.000435  0.014264)
 25:    970.20   0.004330   21.88  0.001393  ( 0.035787  0.010580 -0.000320)
 26:    986.25   0.000354    1.79  0.000112  (-0.003999  0.000489  0.009786)
 27:   1011.62   0.000462    2.34  0.000143  ( 0.011533  0.002491 -0.001847)
 28:   1016.98   0.000309    1.56  0.000095  ( 0.001393 -0.000058 -0.009640)
 29:   1034.92   0.001005    5.08  0.000303  (-0.016826 -0.004253 -0.001394)
 30:   1053.10   0.000291    1.47  0.000086  ( 0.003062  0.000060  0.008775)
 31:   1063.91   0.002724   13.76  0.000799  (-0.020161 -0.000328  0.019807)
 32:   1106.92   0.000521    2.63  0.000147  ( 0.010424  0.006172 -0.000476)
 33:   1135.75   0.002179   11.01  0.000599  (-0.009131 -0.022701 -0.000046)
 34:   1197.68   0.004360   22.03  0.001136  (-0.033557 -0.003159  0.000058)
 35:   1258.37   0.000071    0.36  0.000018  (-0.003297 -0.001155 -0.002333)
 36:   1309.02   0.032266  163.06  0.007692  (-0.087415 -0.007111  0.000128)
 37:   1325.29   0.000671    3.39  0.000158  (-0.012006 -0.003707  0.000128)
 38:   1383.46   0.018112   91.53  0.004085  (-0.052989 -0.035744 -0.000031)
 39:   1401.20   0.003171   16.02  0.000706  (-0.026158 -0.004643 -0.000624)
 40:   1409.73   0.001311    6.63  0.000290  (-0.016165 -0.003631  0.003965)
 41:   1452.22   0.001516    7.66  0.000326  ( 0.010071 -0.014973  0.000386)
 42:   1455.25   0.001800    9.10  0.000386  (-0.019440 -0.002099  0.001928)
 43:   1462.73   0.002768   13.99  0.000590  (-0.000031 -0.000098 -0.024299)
 44:   1472.29   0.001912    9.66  0.000405  ( 0.002258  0.003361  0.019718)
 45:   1483.09   0.005119   25.87  0.001077  ( 0.016038  0.028594 -0.001540)
 46:   1566.03   0.000136    0.69  0.000027  ( 0.003643  0.003674  0.000656)
 47:   1657.70   0.001645    8.31  0.000310  ( 0.017404 -0.002601 -0.000049)
 48:   1702.66   0.013713   69.30  0.002513  (-0.049720  0.006397  0.000513)
 49:   1836.34   0.038279  193.45  0.006505  (-0.051581  0.062004 -0.000134)
 50:   3035.83   0.003196   16.15  0.000329  (-0.018001  0.000071  0.002119)
 51:   3045.02   0.000208    1.05  0.000021  ( 0.002018 -0.004147  0.000010)
 52:   3118.68   0.001589    8.03  0.000159  (-0.006960  0.000060 -0.010513)
 53:   3133.18   0.000555    2.80  0.000055  ( 0.000014 -0.000041 -0.007434)
 54:   3147.84   0.001406    7.11  0.000139  (-0.001893  0.011654  0.000032)
 55:   3178.04   0.001105    5.58  0.000108  (-0.010415 -0.000113 -0.000021)
 56:   3191.06   0.001952    9.86  0.000191  (-0.008627 -0.010791 -0.000115)
 57:   3191.91   0.001695    8.57  0.000166  (-0.010204  0.007847 -0.000137)
 58:   3217.28   0.001331    6.73  0.000129  (-0.002661 -0.011046  0.000078)
 59:   3225.49   0.000459    2.32  0.000044  (-0.005943 -0.003009 -0.000055)

--------------------------
THERMOCHEMISTRY AT 298.15K
--------------------------

Temperature         ...   298.15 K
Pressure            ...     1.00 atm
Total Mass          ...   134.18 AMU
Quasi RRHO          ...     True
Cut-Off Frequency   ...     1.00 cm^-1

Throughout the following assumptions are being made:
  (1) The electronic state is orbitally nondegenerate
  (2) There are no thermally accessible electronically excited states
  (3) Hindered rotations indicated by low frequency modes are not
      treated as such but are treated as vibrations and this may
      cause some error
  (4) All equations used are the standard statistical mechanics
      equations for an ideal gas
  (5) All vibrations are strictly harmonic

freq.      31.33  E(vib)   ...       0.55
freq.      69.75  E(vib)   ...       0.50
freq.     102.26  E(vib)   ...       0.46
freq.     175.38  E(vib)   ...       0.38
freq.     192.55  E(vib)   ...       0.36
freq.     268.69  E(vib)   ...       0.29
freq.     336.98  E(vib)   ...       0.24
freq.     357.17  E(vib)   ...       0.22
freq.     420.62  E(vib)   ...       0.18
freq.     464.78  E(vib)   ...       0.16
freq.     479.76  E(vib)   ...       0.15
freq.     582.61  E(vib)   ...       0.11
freq.     606.93  E(vib)   ...       0.10
freq.     649.90  E(vib)   ...       0.08
freq.     694.64  E(vib)   ...       0.07
freq.     751.19  E(vib)   ...       0.06
freq.     835.08  E(vib)   ...       0.04
freq.     841.01  E(vib)   ...       0.04
freq.     869.92  E(vib)   ...       0.04
freq.     970.20  E(vib)   ...       0.03
freq.     986.25  E(vib)   ...       0.02
freq.    1011.62  E(vib)   ...       0.02
freq.    1016.98  E(vib)   ...       0.02
freq.    1034.92  E(vib)   ...       0.02
freq.    1053.10  E(vib)   ...       0.02
freq.    1063.91  E(vib)   ...       0.02
freq.    1106.92  E(vib)   ...       0.02
freq.    1135.75  E(vib)   ...       0.01
freq.    1197.68  E(vib)   ...       0.01
freq.    1258.37  E(vib)   ...       0.01
freq.    1309.02  E(vib)   ...       0.01
freq.    1325.29  E(vib)   ...       0.01
freq.    1383.46  E(vib)   ...       0.00
freq.    1401.20  E(vib)   ...       0.00
freq.    1409.73  E(vib)   ...       0.00
freq.    1452.22  E(vib)   ...       0.00
freq.    1455.25  E(vib)   ...       0.00
freq.    1462.73  E(vib)   ...       0.00
freq.    1472.29  E(vib)   ...       0.00
freq.    1483.09  E(vib)   ...       0.00
freq.    1566.03  E(vib)   ...       0.00
freq.    1657.70  E(vib)   ...       0.00
freq.    1702.66  E(vib)   ...       0.00
freq.    1836.34  E(vib)   ...       0.00
freq.    3035.83  E(vib)   ...       0.00
freq.    3045.02  E(vib)   ...       0.00
freq.    3118.68  E(vib)   ...       0.00
freq.    3133.18  E(vib)   ...       0.00
freq.    3147.84  E(vib)   ...       0.00
freq.    3178.04  E(vib)   ...       0.00
freq.    3191.06  E(vib)   ...       0.00
freq.    3191.91  E(vib)   ...       0.00
freq.    3217.28  E(vib)   ...       0.00
freq.    3225.49  E(vib)   ...       0.00

------------
INNER ENERGY
------------

The inner energy is: U= E(el) + E(ZPE) + E(vib) + E(rot) + E(trans)
    E(el)   - is the total energy from the electronic structure calculation
              = E(kin-el) + E(nuc-el) + E(el-el) + E(nuc-nuc)
    E(ZPE)  - the the zero temperature vibrational energy from the frequency calculation
    E(vib)  - the the finite temperature correction to E(ZPE) due to population
              of excited vibrational states
    E(rot)  - is the rotational thermal energy
    E(trans)- is the translational thermal energy

Summary of contributions to the inner energy U:
Electronic energy                ...   -423.40427494 Eh
Zero point energy                ...      0.16623237 Eh     104.31 kcal/mol
Thermal vibrational correction   ...      0.00680720 Eh       4.27 kcal/mol
Thermal rotational correction    ...      0.00141627 Eh       0.89 kcal/mol
Thermal translational correction ...      0.00141627 Eh       0.89 kcal/mol
-----------------------------------------------------------------------
Total thermal energy                   -423.22840283 Eh

Summary of corrections to the electronic energy:
(perhaps to be used in another calculation)
Total thermal correction                  0.00963974 Eh       6.05 kcal/mol
Non-thermal (ZPE) correction              0.16623237 Eh     104.31 kcal/mol
-----------------------------------------------------------------------
Total correction                          0.17587212 Eh     110.36 kcal/mol

--------
ENTHALPY
--------

The enthalpy is H = U + kB*T
                kB is Boltzmann's constant
Total thermal energy              ...   -423.22840283 Eh
Thermal Enthalpy correction       ...      0.00094421 Eh       0.59 kcal/mol
-----------------------------------------------------------------------
Total Enthalpy                    ...   -423.22745862 Eh

Note: Only C1 symmetry has been detected, increase convergence thresholds
      if your molecule has a higher symmetry. Symmetry factor of 1.0 is
      used for the rotational entropy correction.

Note: Rotational entropy computed according to Herzberg
Infrared and Raman Spectra, Chapter V,1, Van Nostrand Reinhold, 1945
Point Group:  C1, Symmetry Number:   1
Rotational constants in cm-1:     0.120803     0.026206     0.021712

Vibrational entropy computed according to the QRRHO of S. Grimme
Chem.Eur.J. 2012 18 9955 using a reference frequency of 100.0 cm-1

-------
ENTROPY
-------

The entropy contributions are T*S = T*(S(el)+S(vib)+S(rot)+S(trans))
     S(el)   - electronic entropy
     S(vib)  - vibrational entropy
     S(rot)  - rotational entropy
     S(trans)- translational entropy
The entropies will be listed as multiplied by the temperature to get
units of energy

Electronic entropy                ...      0.00000000 Eh      0.00 kcal/mol
Vibrational entropy               ...      0.01179470 Eh      7.40 kcal/mol
Rotational entropy                ...      0.01403593 Eh      8.81 kcal/mol
Translational entropy             ...      0.01928762 Eh     12.10 kcal/mol
-----------------------------------------------------------------------
Final entropy term                ...      0.04511825 Eh     28.31 kcal/mol

In case the symmetry of your molecule has not been determined correctly
or in case you have a reason to use a different symmetry number we print
out the resulting rotational entropy values for sn=1,12:

 non-linear molecules -----------------------------------
|  sn= 1 | S(rot)=       0.01403593 Eh      8.81 kcal/mol|
|  sn= 2 | S(rot)=       0.01338147 Eh      8.40 kcal/mol|
|  sn= 3 | S(rot)=       0.01299864 Eh      8.16 kcal/mol|
|  sn= 4 | S(rot)=       0.01272701 Eh      7.99 kcal/mol|
|  sn= 5 | S(rot)=       0.01251632 Eh      7.85 kcal/mol|
|  sn= 6 | S(rot)=       0.01234418 Eh      7.75 kcal/mol|

                             ****ORCA TERMINATED NORMALLY****
TOTAL RUN TIME: 0 days 0 hours 9 minutes 25 seconds 385 msec
