                         Program Version 6.0.0  -   RELEASE  -
|  1> !r2SCAN opt aug-cc-pVTZ d3 TightSCF SlowConv RIJCOSX defgrid2
|  2>
|  3> %pal
|  4> nprocs 8
|  5> end
|  6>
|  7> %scf
|  8> MaxIter 1500
|  9> end
| 10>
| 11> %maxcore 3500
| 12>
| 13> !CPCM
| 14> %cpcm smd true
| 15> SMDsolvent "MeCN"
| 16> surfacetype gepol_ses
| 17> rsolv 2.19
| 18> end
| 19>
| 20> * xyz 0 1
| 21> C          -1.20884186796781     -0.02278058914418      0.00003742233159
| 22> C          -1.20709913160620      1.38045218788773      0.00016703364523
| 23> C           0.00003556987027      2.07238258705511      0.00002257197541
| 24> C           1.20714414585697      1.38040506278913     -0.00023783478174
| 25> C           1.20883517896309     -0.02282737272555     -0.00031075934043
| 26> C          -0.00001674938231     -0.72722788932514     -0.00021243594479
| 27> H          -0.00003875372447     -1.81890955720448     -0.00030359455707
| 28> C           2.45039282749013     -0.73822162648839     -0.00031862016213
| 29> N           3.45665781045797     -1.31294485312421      0.00119491286029
| 30> H           2.15765649045058      1.91893621365633     -0.00034701835738
| 31> H           0.00005970442079      3.16546819660540      0.00011390445176
| 32> H          -2.15759482922730      1.91901494079977      0.00036663554396
| 33> C          -2.45042247590246     -0.73813543850926      0.00010406543100
| 34> N          -3.45670371969924     -1.31283236227226     -0.00021618309569
| 35> *
| 36>
| 37>                          ****END OF INPUT****
 Total Charge           Charge          ....    0
 Multiplicity           Mult            ....    1
 Number of Electrons    NEL             ....   66
Dispersion correction           -0.004806338
FINAL SINGLE POINT ENERGY      -416.661647196764
Dispersion correction             ... done (  0.1 sec)
Dispersion correction           -0.004819628
FINAL SINGLE POINT ENERGY      -416.662293011613
Dispersion correction             ... done (  0.1 sec)
Dispersion correction           -0.004822369
FINAL SINGLE POINT ENERGY      -416.662317667890
Dispersion correction             ... done (  0.0 sec)
Dispersion correction           -0.004822698
FINAL SINGLE POINT ENERGY      -416.662320983350
Dispersion correction             ... done (  0.1 sec)
                    ***********************HURRAY********************

CARTESIAN COORDINATES (ANGSTROEM)
---------------------------------
  C     -1.199209   -0.021361    0.000124
  C     -1.203336    1.379366    0.000393
  C      0.000032    2.068132    0.000020
  C      1.203376    1.379324   -0.000458
  C      1.199211   -0.021402   -0.000345
  C     -0.000012   -0.733426   -0.000190
  H     -0.000032   -1.814476   -0.000287
  C      2.431953   -0.731104   -0.000187
  N      3.436186   -1.304411    0.001273
  H      2.144004    1.913707   -0.000534
  H      0.000054    3.149948    0.000099
  H     -2.143947    1.913779    0.000545
  C     -2.431978   -0.731016    0.000007
  N     -3.436237   -1.304279   -0.000400

 Multiplicity           Mult            ....    1
 Number of Electrons    NEL             ....   66
 Basis Dimension        Dim             ....  552

ORBITAL ENERGIES
----------------

  NO   OCC          E(Eh)            E(eV)
   0   2.0000     -14.176417      -385.7599
   1   2.0000     -14.176416      -385.7599
   2   2.0000     -10.101675      -274.8805
   3   2.0000     -10.101663      -274.8802
   4   2.0000     -10.094376      -274.6819
   5   2.0000     -10.094369      -274.6818
   6   2.0000     -10.084034      -274.4005
   7   2.0000     -10.076109      -274.1849
   8   2.0000     -10.076089      -274.1843
   9   2.0000     -10.064813      -273.8775
  10   2.0000      -0.897413       -24.4198
  11   2.0000      -0.891868       -24.2690
  12   2.0000      -0.861329       -23.4380
  13   2.0000      -0.776846       -21.1390
  14   2.0000      -0.758560       -20.6415
  15   2.0000      -0.640681       -17.4338
  16   2.0000      -0.636185       -17.3115
  17   2.0000      -0.567836       -15.4516
  18   2.0000      -0.483219       -13.1491
  19   2.0000      -0.477797       -13.0015
  20   2.0000      -0.466152       -12.6846
  21   2.0000      -0.423464       -11.5230
  22   2.0000      -0.404807       -11.0154
  23   2.0000      -0.370186       -10.0733
  24   2.0000      -0.366036        -9.9603
  25   2.0000      -0.365766        -9.9530
  26   2.0000      -0.354076        -9.6349
  27   2.0000      -0.348586        -9.4855
  28   2.0000      -0.330130        -8.9833
  29   2.0000      -0.326368        -8.8809
  30   2.0000      -0.326363        -8.8808
  31   2.0000      -0.267843        -7.2884
  32   2.0000      -0.263190        -7.1618
  33   0.0000      -0.099361        -2.7038
  34   0.0000      -0.084340        -2.2950
  35   0.0000      -0.020304        -0.5525
  36   0.0000      -0.004966        -0.1351
  37   0.0000       0.002236         0.0609

MULLIKEN ATOMIC CHARGES
-----------------------
   0 C :    1.482165
   1 C :   -0.772182
   2 C :   -0.506026
   3 C :   -0.772174
   4 C :    1.482165
   5 C :   -0.936627
   6 H :   -0.049697
   7 C :    0.486213
   8 N :   -0.844359
   9 H :    0.119210
  10 H :    0.550246
  11 H :    0.119200
  12 C :    0.486226
  13 N :   -0.844360
Sum of atomic charges:   -0.0000000

LOEWDIN ATOMIC CHARGES
----------------------
   0 C :   -0.183665
   1 C :    0.237918
   2 C :    0.248344
   3 C :    0.237918
   4 C :   -0.183664
   5 C :    0.227093
   6 H :   -0.147901
   7 C :   -0.236395
   8 N :    0.250867
   9 H :   -0.152800
  10 H :   -0.159384
  11 H :   -0.152800
  12 C :   -0.236396
  13 N :    0.250867

  Mayer bond orders larger than 0.100000
B(  0-C ,  1-C ) :   0.1910 B(  0-C ,  2-C ) :   0.1304 B(  0-C ,  4-C ) :   0.3923
B(  0-C ,  5-C ) :   0.3144 B(  0-C ,  6-H ) :  -0.1881 B(  0-C , 11-H ) :  -0.1457
B(  0-C , 12-C ) :   0.6208 B(  1-C ,  2-C ) :   1.1348 B(  1-C ,  3-C ) :  -0.1973
B(  1-C ,  5-C ) :  -0.2035 B(  1-C , 11-H ) :   1.2082 B(  1-C , 12-C ) :   0.3180
B(  1-C , 13-N ) :   0.1299 B(  2-C ,  3-C ) :   1.1349 B(  2-C ,  4-C ) :   0.1304
B(  2-C , 10-H ) :   0.5123 B(  3-C ,  4-C ) :   0.1911 B(  3-C ,  5-C ) :  -0.2035
B(  3-C ,  7-C ) :   0.3180 B(  3-C ,  8-N ) :   0.1299 B(  3-C ,  9-H ) :   1.2082
B(  4-C ,  5-C ) :   0.3144 B(  4-C ,  6-H ) :  -0.1881 B(  4-C ,  7-C ) :   0.6208
B(  4-C ,  9-H ) :  -0.1457 B(  5-C ,  6-H ) :   1.3991 B(  5-C ,  7-C ) :   0.1046
B(  5-C ,  8-N ) :   0.1048 B(  5-C , 12-C ) :   0.1046 B(  5-C , 13-N ) :   0.1048
B(  7-C ,  8-N ) :   1.6994 B(  7-C , 12-C ) :   0.2202 B( 12-C , 13-N ) :   1.6994

Dispersion correction           -0.004822582
FINAL SINGLE POINT ENERGY      -416.662322326712

DIPOLE MOMENT
-------------

Method             : SCF
Type of density    : Electron Density
Multiplicity       :   1
Irrep              :   0
Energy             :  -416.6574997443161124 Eh
Relativity type    :
Basis              : AO
                                X                 Y                 Z
Electronic contribution:     -0.000021642      -2.414582472      -0.000552382
Nuclear contribution   :      0.000079812       4.836598015      -0.000291208
                        -----------------------------------------
Total Dipole Moment    :      0.000058170       2.422015543      -0.000843591
                        -----------------------------------------
Magnitude (a.u.)       :      2.422015690
Magnitude (Debye)      :      6.156274638

Rotational constants in cm-1:             0.091245             0.030570             0.022898
Rotational constants in MHz :          2735.457108           916.452083           686.467109

                             ****ORCA TERMINATED NORMALLY****
TOTAL RUN TIME: 0 days 0 hours 7 minutes 29 seconds 780 msec
