                         Program Version 6.0.0  -   RELEASE  -
|  1> !PBE0 def2-SV(p) Opt Freq d3 TightSCF SlowConv RIJCOSX defgrid2
|  2>
|  3> %pal
|  4> nprocs 4
|  5> end
|  6>
|  7> %scf
|  8> MaxIter 1500
|  9> end
| 10>
| 11> %maxcore 3000
| 12>
| 13>
| 14>
| 15> * xyz 1 2
| 16> C     1.8302787   -0.0001318   -0.0299887
| 17> C     1.1379967   -1.2213412   -0.0362239
| 18> C    -0.2315637   -1.2248200    0.0554155
| 19> C    -0.9506824    0.0003510    0.0495366
| 20> C    -2.4080536    0.0003056   -0.0513505
| 21> H    -2.8001576    0.9055366   -0.5166434
| 22> H    -2.7993153   -0.9013556   -0.5245305
| 23> H    -2.8041136   -0.0054419    0.9792427
| 24> C    -0.2312029    1.2252426    0.0550476
| 25> C     1.1383840    1.2212834   -0.0366255
| 26> H     1.6864613    2.1502236   -0.0722639
| 27> H    -0.7753341    2.1569839    0.0992238
| 28> H    -0.7760031   -2.1563743    0.0998790
| 29> H     1.6857953   -2.1504579   -0.0715082
| 30> H     2.9081839   -0.0002865    0.0530235
| 31> *
| 32>
| 33>                          ****END OF INPUT****
 Total Charge           Charge          ....    1
 Multiplicity           Mult            ....    2
 Number of Electrons    NEL             ....   49
Dispersion correction           -0.012248149
FINAL SINGLE POINT ENERGY      -270.713976200720
Dispersion correction             ... done (  0.1 sec)
Dispersion correction           -0.012176609
FINAL SINGLE POINT ENERGY      -270.716742306099
Dispersion correction             ... done (  0.0 sec)
Dispersion correction           -0.012161878
FINAL SINGLE POINT ENERGY      -270.717197816866
Dispersion correction             ... done (  0.0 sec)
Dispersion correction           -0.012162120
FINAL SINGLE POINT ENERGY      -270.717350626969
Dispersion correction             ... done (  0.0 sec)
Dispersion correction           -0.012165536
FINAL SINGLE POINT ENERGY      -270.717361013858
Dispersion correction             ... done (  0.1 sec)
                    ***********************HURRAY********************

CARTESIAN COORDINATES (ANGSTROEM)
---------------------------------
  C      1.842812   -0.000066    0.012855
  C      1.143554   -1.239025    0.001585
  C     -0.226358   -1.240131   -0.016994
  C     -0.955067   -0.000296   -0.028227
  C     -2.424938   -0.000157   -0.015403
  H     -2.852890    0.906888   -0.473081
  H     -2.853571   -0.910371   -0.465767
  H     -2.756834    0.005045    1.050469
  C     -0.226495    1.239696   -0.014588
  C      1.143398    1.238784    0.003984
  H      1.704663    2.177046    0.011385
  H     -0.785225    2.180071   -0.023274
  H     -0.784964   -2.180552   -0.027519
  H      1.704962   -2.177214    0.007165
  H      2.937626    0.000000    0.029642

 Multiplicity           Mult            ....    2
 Number of Electrons    NEL             ....   49
 Basis Dimension        Dim             ....  114

ORBITAL ENERGIES
----------------
                 SPIN UP ORBITALS
  NO   OCC          E(Eh)            E(eV)
   0   1.0000     -10.503139      -285.8049
   1   1.0000     -10.484875      -285.3080
   2   1.0000     -10.457087      -284.5518
   3   1.0000     -10.457039      -284.5505
   4   1.0000     -10.452786      -284.4348
   5   1.0000     -10.452738      -284.4335
   6   1.0000     -10.415627      -283.4236
   7   1.0000      -1.103231       -30.0204
   8   1.0000      -1.012493       -27.5513
   9   1.0000      -0.982964       -26.7478
  10   1.0000      -0.908619       -24.7248
  11   1.0000      -0.834191       -22.6995
  12   1.0000      -0.811861       -22.0919
  13   1.0000      -0.735378       -20.0107
  14   1.0000      -0.697112       -18.9694
  15   1.0000      -0.670824       -18.2540
  16   1.0000      -0.648988       -17.6599
  17   1.0000      -0.643569       -17.5124
  18   1.0000      -0.633498       -17.2384
  19   1.0000      -0.593142       -16.1402
  20   1.0000      -0.586282       -15.9535
  21   1.0000      -0.573410       -15.6033
  22   1.0000      -0.559381       -15.2215
  23   1.0000      -0.487053       -13.2534
  24   1.0000      -0.486498       -13.2383
  25   0.0000      -0.245690        -6.6856
  26   0.0000      -0.213238        -5.8025
  27   0.0000      -0.095304        -2.5933
  28   0.0000      -0.075187        -2.0459
  29   0.0000      -0.066134        -1.7996

                 SPIN DOWN ORBITALS
  NO   OCC          E(Eh)            E(eV)
   0   1.0000     -10.496795      -285.6323
   1   1.0000     -10.477408      -285.1048
   2   1.0000     -10.455780      -284.5162
   3   1.0000     -10.455742      -284.5152
   4   1.0000     -10.453345      -284.4500
   5   1.0000     -10.453304      -284.4489
   6   1.0000     -10.415591      -283.4227
   7   1.0000      -1.091909       -29.7124
   8   1.0000      -0.997807       -27.1517
   9   1.0000      -0.981019       -26.6949
  10   1.0000      -0.899253       -24.4699
  11   1.0000      -0.828426       -22.5426
  12   1.0000      -0.804496       -21.8914
  13   1.0000      -0.731810       -19.9136
  14   1.0000      -0.693250       -18.8643
  15   1.0000      -0.666980       -18.1495
  16   1.0000      -0.648583       -17.6488
  17   1.0000      -0.628583       -17.1046
  18   1.0000      -0.619845       -16.8669
  19   1.0000      -0.591218       -16.0879
  20   1.0000      -0.571665       -15.5558
  21   1.0000      -0.559578       -15.2269
  22   1.0000      -0.556201       -15.1350
  23   1.0000      -0.481843       -13.1116
  24   0.0000      -0.382330       -10.4037
  25   0.0000      -0.202077        -5.4988
  26   0.0000      -0.198952        -5.4138
  27   0.0000      -0.093941        -2.5563
  28   0.0000      -0.064295        -1.7496

MULLIKEN ATOMIC CHARGES AND SPIN POPULATIONS
--------------------------------------------
   0 C :   -0.001263    0.509158
   1 C :   -0.057751   -0.055697
   2 C :   -0.051105    0.076680
   3 C :   -0.002154    0.430565
   4 C :   -0.328389   -0.022002
   5 H :    0.205055    0.010942
   6 H :    0.204792    0.010487
   7 H :    0.234261    0.054142
   8 C :   -0.050979    0.077363
   9 C :   -0.057850   -0.056323
  10 H :    0.183859    0.000216
  11 H :    0.170663   -0.005651
  12 H :    0.170665   -0.005627
  13 H :    0.183864    0.000190
  14 H :    0.196333   -0.024443
Sum of atomic charges         :    1.0000000

LOEWDIN ATOMIC CHARGES AND SPIN POPULATIONS
-------------------------------------------
   0 C :    0.049896    0.420355
   1 C :   -0.069432   -0.007998
   2 C :   -0.056051    0.092209
   3 C :    0.108656    0.349408
   4 C :   -0.318358    0.014103
   5 H :    0.170846    0.009726
   6 H :    0.170519    0.009339
   7 H :    0.202471    0.047346
   8 C :   -0.055895    0.092694
   9 C :   -0.069620   -0.008465
  10 H :    0.174573   -0.000040
  11 H :    0.170417   -0.003158
  12 H :    0.170422   -0.003144
  13 H :    0.174582   -0.000053
  14 H :    0.176974   -0.012324

  Mayer bond orders larger than 0.100000
B(  0-C ,  1-C ) :   1.2225 B(  0-C ,  9-C ) :   1.2226 B(  0-C , 14-H ) :   0.9399
B(  1-C ,  2-C ) :   1.5503 B(  1-C , 13-H ) :   0.9470 B(  2-C ,  3-C ) :   1.1905
B(  2-C , 12-H ) :   0.9495 B(  3-C ,  4-C ) :   1.1548 B(  3-C ,  8-C ) :   1.1898
B(  4-C ,  5-H ) :   0.9160 B(  4-C ,  6-H ) :   0.9166 B(  4-C ,  7-H ) :   0.8599
B(  8-C ,  9-C ) :   1.5504 B(  8-C , 11-H ) :   0.9496 B(  9-C , 10-H ) :   0.9471

Dispersion correction           -0.012166652
FINAL SINGLE POINT ENERGY      -270.717361491018

DIPOLE MOMENT
-------------

Method             : SCF
Type of density    : Electron Density
Multiplicity       :   2
Irrep              :   0
Energy             :  -270.7051948387679090 Eh
Relativity type    :
Basis              : AO
                                X                 Y                 Z
Electronic contribution:      3.439847105      -0.000907025      -0.066115280
Nuclear contribution   :     -3.446153110       0.001949667       0.148888103
                        -----------------------------------------
Total Dipole Moment    :     -0.006306004       0.001042642       0.082772823
                        -----------------------------------------
Magnitude (a.u.)       :      0.083019233
Magnitude (Debye)      :      0.211018120

VIBRATIONAL FREQUENCIES
-----------------------

Scaling factor for frequencies =  1.000000000  (already applied!)

     0:       0.00 cm**-1
     1:       0.00 cm**-1
     2:       0.00 cm**-1
     3:       0.00 cm**-1
     4:       0.00 cm**-1
     5:       0.00 cm**-1
     6:      54.50 cm**-1
     7:     150.36 cm**-1
     8:     351.02 cm**-1
     9:     356.75 cm**-1
    10:     390.84 cm**-1
    11:     507.09 cm**-1
    12:     516.08 cm**-1
    13:     583.02 cm**-1
    14:     741.97 cm**-1
    15:     793.24 cm**-1
    16:     802.89 cm**-1
    17:     937.48 cm**-1
    18:     983.54 cm**-1
    19:     995.06 cm**-1
    20:    1001.25 cm**-1
    21:    1007.46 cm**-1
    22:    1026.13 cm**-1
    23:    1041.89 cm**-1
    24:    1098.91 cm**-1
    25:    1159.04 cm**-1
    26:    1207.08 cm**-1
    27:    1280.00 cm**-1
    28:    1306.84 cm**-1
    29:    1343.56 cm**-1
    30:    1386.27 cm**-1
    31:    1413.50 cm**-1
    32:    1450.68 cm**-1
    33:    1464.17 cm**-1
    34:    1485.42 cm**-1
    35:    1560.93 cm**-1
    36:    1720.83 cm**-1
    37:    2959.72 cm**-1
    38:    3101.60 cm**-1
    39:    3168.78 cm**-1
    40:    3220.86 cm**-1
    41:    3223.42 cm**-1
    42:    3227.95 cm**-1
    43:    3238.79 cm**-1
    44:    3242.39 cm**-1

IR SPECTRUM
-----------

 Mode   freq       eps      Int      T**2         TX        TY        TZ
       cm**-1   L/(mol*cm) km/mol    a.u.
----------------------------------------------------------------------------
  6:     54.50   0.000743    3.75  0.004253  (-0.000101 -0.065208  0.001143)
  7:    150.36   0.000355    1.79  0.000737  (-0.004404 -0.000083 -0.026790)
  8:    351.02   0.000044    0.22  0.000039  (-0.000013 -0.006246 -0.000035)
  9:    356.75   0.000001    0.00  0.000001  (-0.000007 -0.000812  0.000079)
 10:    390.84   0.000003    0.02  0.000003  ( 0.000903 -0.000018 -0.001406)
 11:    507.09   0.000090    0.46  0.000055  (-0.000073 -0.007449  0.000036)
 12:    516.08   0.000089    0.45  0.000054  ( 0.001337 -0.000055 -0.007230)
 13:    583.02   0.005277   26.67  0.002825  (-0.010211 -0.000037  0.052157)
 14:    741.97   0.006426   32.48  0.002703  ( 0.014096 -0.000072  0.050041)
 15:    793.24   0.000793    4.01  0.000312  ( 0.003813 -0.000061 -0.017245)
 16:    802.89   0.000015    0.07  0.000006  ( 0.000014 -0.002382  0.000182)
 17:    937.48   0.002158   10.91  0.000718  (-0.023126  0.000005  0.013547)
 18:    983.54   0.000114    0.57  0.000036  (-0.000682  0.005960  0.000207)
 19:    995.06   0.005978   30.21  0.001875  (-0.029228 -0.000065  0.031943)
 20:   1001.25   0.003144   15.89  0.000980  (-0.029146  0.000021  0.011424)
 21:   1007.46   0.001576    7.96  0.000488  ( 0.015626 -0.000032  0.015618)
 22:   1026.13   0.000002    0.01  0.000001  (-0.000027  0.000788  0.000059)
 23:   1041.89   0.000039    0.20  0.000012  (-0.002407  0.000008 -0.002401)
 24:   1098.91   0.002723   13.76  0.000773  (-0.000027 -0.027809 -0.000030)
 25:   1159.04   0.000275    1.39  0.000074  (-0.000240  0.008601  0.000011)
 26:   1207.08   0.000203    1.03  0.000053  ( 0.007204 -0.000014 -0.000777)
 27:   1280.00   0.001321    6.68  0.000322  (-0.017907  0.000011  0.001187)
 28:   1306.84   0.001088    5.50  0.000260  ( 0.000962 -0.016088 -0.000148)
 29:   1343.56   0.024851  125.59  0.005772  (-0.071469  0.000307  0.025772)
 30:   1386.27   0.002433   12.30  0.000548  (-0.000162 -0.023401  0.000343)
 31:   1413.50   0.003186   16.10  0.000703  ( 0.000058 -0.026521  0.000271)
 32:   1450.68   0.001264    6.39  0.000272  ( 0.000151 -0.016488 -0.000303)
 33:   1464.17   0.011007   55.62  0.002346  ( 0.045874 -0.000044 -0.015539)
 34:   1485.42   0.030009  151.65  0.006304  ( 0.078813  0.000031  0.009634)
 35:   1560.93   0.010217   51.63  0.002043  (-0.000066  0.045195  0.000045)
 36:   1720.83   0.000105    0.53  0.000019  (-0.004317 -0.000002  0.000680)
 37:   2959.72   0.025164  127.17  0.002653  ( 0.049427 -0.000084 -0.014497)
 38:   3101.60   0.001112    5.62  0.000112  ( 0.000314 -0.000113  0.010572)
 39:   3168.78   0.000517    2.61  0.000051  (-0.000257  0.007129  0.000047)
 40:   3220.86   0.000000    0.00  0.000000  (-0.000034  0.000048 -0.000149)
 41:   3223.42   0.000323    1.63  0.000031  (-0.000035  0.005592  0.000006)
 42:   3227.95   0.000719    3.64  0.000070  (-0.008337 -0.000015 -0.000213)
 43:   3238.79   0.003018   15.25  0.000291  (-0.000021 -0.017054 -0.000017)
 44:   3242.39   0.000900    4.55  0.000087  (-0.009305  0.000029 -0.000059)

--------------------------
THERMOCHEMISTRY AT 298.15K
--------------------------

Temperature         ...   298.15 K
Pressure            ...     1.00 atm
Total Mass          ...    92.14 AMU
Quasi RRHO          ...     True
Cut-Off Frequency   ...     1.00 cm^-1

Throughout the following assumptions are being made:
  (1) The electronic state is orbitally nondegenerate
      but the spin degeneracy is treated
  (2) There are no thermally accessible electronically excited states
  (3) Hindered rotations indicated by low frequency modes are not
      treated as such but are treated as vibrations and this may
      cause some error
  (4) All equations used are the standard statistical mechanics
      equations for an ideal gas
  (5) All vibrations are strictly harmonic

freq.      54.50  E(vib)   ...       0.52
freq.     150.36  E(vib)   ...       0.40
freq.     351.02  E(vib)   ...       0.23
freq.     356.75  E(vib)   ...       0.22
freq.     390.84  E(vib)   ...       0.20
freq.     507.09  E(vib)   ...       0.14
freq.     516.08  E(vib)   ...       0.13
freq.     583.02  E(vib)   ...       0.11
freq.     741.97  E(vib)   ...       0.06
freq.     793.24  E(vib)   ...       0.05
freq.     802.89  E(vib)   ...       0.05
freq.     937.48  E(vib)   ...       0.03
freq.     983.54  E(vib)   ...       0.02
freq.     995.06  E(vib)   ...       0.02
freq.    1001.25  E(vib)   ...       0.02
freq.    1007.46  E(vib)   ...       0.02
freq.    1026.13  E(vib)   ...       0.02
freq.    1041.89  E(vib)   ...       0.02
freq.    1098.91  E(vib)   ...       0.02
freq.    1159.04  E(vib)   ...       0.01
freq.    1207.08  E(vib)   ...       0.01
freq.    1280.00  E(vib)   ...       0.01
freq.    1306.84  E(vib)   ...       0.01
freq.    1343.56  E(vib)   ...       0.01
freq.    1386.27  E(vib)   ...       0.00
freq.    1413.50  E(vib)   ...       0.00
freq.    1450.68  E(vib)   ...       0.00
freq.    1464.17  E(vib)   ...       0.00
freq.    1485.42  E(vib)   ...       0.00
freq.    1560.93  E(vib)   ...       0.00
freq.    1720.83  E(vib)   ...       0.00
freq.    2959.72  E(vib)   ...       0.00
freq.    3101.60  E(vib)   ...       0.00
freq.    3168.78  E(vib)   ...       0.00
freq.    3220.86  E(vib)   ...       0.00
freq.    3223.42  E(vib)   ...       0.00
freq.    3227.95  E(vib)   ...       0.00
freq.    3238.79  E(vib)   ...       0.00
freq.    3242.39  E(vib)   ...       0.00

------------
INNER ENERGY
------------

The inner energy is: U= E(el) + E(ZPE) + E(vib) + E(rot) + E(trans)
    E(el)   - is the total energy from the electronic structure calculation
              = E(kin-el) + E(nuc-el) + E(el-el) + E(nuc-nuc)
    E(ZPE)  - the the zero temperature vibrational energy from the frequency calculation
    E(vib)  - the the finite temperature correction to E(ZPE) due to population
              of excited vibrational states
    E(rot)  - is the rotational thermal energy
    E(trans)- is the translational thermal energy

Summary of contributions to the inner energy U:
Electronic energy                ...   -270.71736149 Eh
Zero point energy                ...      0.12644129 Eh      79.34 kcal/mol
Thermal vibrational correction   ...      0.00374838 Eh       2.35 kcal/mol
Thermal rotational correction    ...      0.00141627 Eh       0.89 kcal/mol
Thermal translational correction ...      0.00141627 Eh       0.89 kcal/mol
-----------------------------------------------------------------------
Total thermal energy                   -270.58433928 Eh

Summary of corrections to the electronic energy:
(perhaps to be used in another calculation)
Total thermal correction                  0.00658092 Eh       4.13 kcal/mol
Non-thermal (ZPE) correction              0.12644129 Eh      79.34 kcal/mol
-----------------------------------------------------------------------
Total correction                          0.13302221 Eh      83.47 kcal/mol

--------
ENTHALPY
--------

The enthalpy is H = U + kB*T
                kB is Boltzmann's constant
Total thermal energy              ...   -270.58433928 Eh
Thermal Enthalpy correction       ...      0.00094421 Eh       0.59 kcal/mol
-----------------------------------------------------------------------
Total Enthalpy                    ...   -270.58339507 Eh

Note: Only C1 symmetry has been detected, increase convergence thresholds
      if your molecule has a higher symmetry. Symmetry factor of 1.0 is
      used for the rotational entropy correction.

Note: Rotational entropy computed according to Herzberg
Infrared and Raman Spectra, Chapter V,1, Van Nostrand Reinhold, 1945
Point Group:  C1, Symmetry Number:   1
Rotational constants in cm-1:     0.175281     0.085805     0.058230

Vibrational entropy computed according to the QRRHO of S. Grimme
Chem.Eur.J. 2012 18 9955 using a reference frequency of 100.0 cm-1

-------
ENTROPY
-------

The entropy contributions are T*S = T*(S(el)+S(vib)+S(rot)+S(trans))
     S(el)   - electronic entropy
     S(vib)  - vibrational entropy
     S(rot)  - rotational entropy
     S(trans)- translational entropy
The entropies will be listed as multiplied by the temperature to get
units of energy

Electronic entropy                ...      0.00065446 Eh      0.41 kcal/mol
Vibrational entropy               ...      0.00612566 Eh      3.84 kcal/mol
Rotational entropy                ...      0.01283451 Eh      8.05 kcal/mol
Translational entropy             ...      0.01875532 Eh     11.77 kcal/mol
-----------------------------------------------------------------------
Final entropy term                ...      0.03836995 Eh     24.08 kcal/mol

In case the symmetry of your molecule has not been determined correctly
or in case you have a reason to use a different symmetry number we print
out the resulting rotational entropy values for sn=1,12:

 non-linear molecules -----------------------------------
|  sn= 1 | S(rot)=       0.01283451 Eh      8.05 kcal/mol|
|  sn= 2 | S(rot)=       0.01218006 Eh      7.64 kcal/mol|
|  sn= 3 | S(rot)=       0.01179722 Eh      7.40 kcal/mol|
|  sn= 4 | S(rot)=       0.01152560 Eh      7.23 kcal/mol|
|  sn= 5 | S(rot)=       0.01131491 Eh      7.10 kcal/mol|
|  sn= 6 | S(rot)=       0.01114277 Eh      6.99 kcal/mol|
|  sn= 7 | S(rot)=       0.01099722 Eh      6.90 kcal/mol|
|  sn= 8 | S(rot)=       0.01087114 Eh      6.82 kcal/mol|
|  sn= 9 | S(rot)=       0.01075993 Eh      6.75 kcal/mol|
|  sn=10 | S(rot)=       0.01066045 Eh      6.69 kcal/mol|
|  sn=11 | S(rot)=       0.01057046 Eh      6.63 kcal/mol|
|  sn=12 | S(rot)=       0.01048831 Eh      6.58 kcal/mol|
 linear molecules ---------------------------------------
|  Dinfh | S(rot)=       0.00801045 Eh      5.03 kcal/mol|
|  Cinfv | S(rot)=       0.00866490 Eh      5.44 kcal/mol|
 --------------------------------------------------------

-------------------
GIBBS FREE ENERGY

                             ****ORCA TERMINATED NORMALLY****
TOTAL RUN TIME: 0 days 0 hours 7 minutes 23 seconds 126 msec
