                         Program Version 6.0.0  -   RELEASE  -
|  1> !r2SCANh freq aug-cc-pVTZ d3 TightSCF SlowConv RIJCOSX defgrid2
|  2>
|  3> %pal
|  4> nprocs 12
|  5> end
|  6>
|  7> %scf
|  8> MaxIter 1500
|  9> end
| 10>
| 11> %maxcore 5000
| 12>
| 13> !CPCM
| 14> %cpcm smd true
| 15> SMDsolvent "MeCN"
| 16> surfacetype gepol_ses
| 17> rsolv 2.19
| 18> end
| 19>
| 20> * xyz -1 2
| 21> C          -1.21233563227995     -0.03820830874744      0.00001326549601
| 22> C          -1.21575003866861      1.41119717657405     -0.00020665490230
| 23> C           0.00004530652022      2.07598196027582     -0.00000198739270
| 24> C           1.21580961369173      1.41114238650158      0.00020618027081
| 25> C           1.21233143505262     -0.03826190508037      0.00002048751552
| 26> C          -0.00001836648918     -0.72444842632062      0.00002791294970
| 27> H          -0.00004107166497     -1.80649467014772      0.00001857500019
| 28> C           2.41066003242928     -0.76064289215134     -0.00016289070102
| 29> N           3.41950997490007     -1.34259165964597     -0.00032238648176
| 30> H           2.15183270229589      1.94915587552898      0.00084429041726
| 31> H           0.00007297881017      3.15966212032222     -0.00001067841371
| 32> H          -2.15174942404600      1.94925316256275     -0.00086226388611
| 33> C          -2.41069922733245     -0.76053284676291      0.00017534670561
| 34> N          -3.41957738321884     -1.34243227290904      0.00031170342250
| 35> *
| 36>
| 37>                          ****END OF INPUT****

CARTESIAN COORDINATES (ANGSTROEM)
---------------------------------
  C     -1.212336   -0.038208    0.000013
  C     -1.215750    1.411197   -0.000207
  C      0.000045    2.075982   -0.000002
  C      1.215810    1.411142    0.000206
  C      1.212331   -0.038262    0.000020
  C     -0.000018   -0.724448    0.000028
  H     -0.000041   -1.806495    0.000019
  C      2.410660   -0.760643   -0.000163
  N      3.419510   -1.342592   -0.000322
  H      2.151833    1.949156    0.000844
  H      0.000073    3.159662   -0.000011
  H     -2.151749    1.949253   -0.000862
  C     -2.410699   -0.760533    0.000175
  N     -3.419577   -1.342432    0.000312

 Total Charge           Charge          ....   -1
 Multiplicity           Mult            ....    2
 Number of Electrons    NEL             ....   67
 Basis Dimension        Dim             ....  552

ORBITAL ENERGIES
----------------
                 SPIN UP ORBITALS
  NO   OCC          E(Eh)            E(eV)
   0   1.0000     -14.283009      -388.6604
   1   1.0000     -14.283008      -388.6604
   2   1.0000     -10.182832      -277.0889
   3   1.0000     -10.182827      -277.0888
   4   1.0000     -10.171492      -276.7804
   5   1.0000     -10.169678      -276.7310
   6   1.0000     -10.169605      -276.7290
   7   1.0000     -10.147951      -276.1398
   8   1.0000     -10.142977      -276.0044
   9   1.0000     -10.142949      -276.0037
  10   1.0000      -0.899365       -24.4730
  11   1.0000      -0.895668       -24.3724
  12   1.0000      -0.850894       -23.1540
  13   1.0000      -0.764708       -20.8088
  14   1.0000      -0.753904       -20.5148
  15   1.0000      -0.637697       -17.3526
  16   1.0000      -0.622224       -16.9316
  17   1.0000      -0.554177       -15.0799
  18   1.0000      -0.475398       -12.9362
  19   1.0000      -0.463088       -12.6013
  20   1.0000      -0.441094       -12.0028
  21   1.0000      -0.412768       -11.2320
  22   1.0000      -0.394833       -10.7440
  23   1.0000      -0.362585        -9.8664
  24   1.0000      -0.360410        -9.8073
  25   1.0000      -0.360284        -9.8038
  26   1.0000      -0.344454        -9.3731
  27   1.0000      -0.344088        -9.3631
  28   1.0000      -0.321085        -8.7372
  29   1.0000      -0.313455        -8.5295
  30   1.0000      -0.308315        -8.3897
  31   1.0000      -0.255280        -6.9465
  32   1.0000      -0.249082        -6.7779
  33   1.0000      -0.102405        -2.7866
  34   0.0000      -0.042428        -1.1545
  35   0.0000       0.008271         0.2251
  36   0.0000       0.018497         0.5033
  37   0.0000       0.025499         0.6939
  38   0.0000       0.027996         0.7618

                 SPIN DOWN ORBITALS
  NO   OCC          E(Eh)            E(eV)
   0   1.0000     -14.280610      -388.5952
   1   1.0000     -14.280609      -388.5951
   2   1.0000     -10.182772      -277.0873
   3   1.0000     -10.182767      -277.0872
   4   1.0000     -10.172228      -276.8004
   5   1.0000     -10.167898      -276.6826
   6   1.0000     -10.167872      -276.6819
   7   1.0000     -10.150730      -276.2154
   8   1.0000     -10.136044      -275.8158
   9   1.0000     -10.136040      -275.8157
  10   1.0000      -0.895743       -24.3744
  11   1.0000      -0.892243       -24.2792
  12   1.0000      -0.845785       -23.0150
  13   1.0000      -0.755462       -20.5572
  14   1.0000      -0.749848       -20.4044
  15   1.0000      -0.622081       -16.9277
  16   1.0000      -0.620468       -16.8838
  17   1.0000      -0.553788       -15.0693
  18   1.0000      -0.469692       -12.7810
  19   1.0000      -0.461066       -12.5462
  20   1.0000      -0.438660       -11.9365
  21   1.0000      -0.412268       -11.2184
  22   1.0000      -0.381670       -10.3858
  23   1.0000      -0.359049        -9.7702
  24   1.0000      -0.356972        -9.7137
  25   1.0000      -0.348796        -9.4912
  26   1.0000      -0.342932        -9.3316
  27   1.0000      -0.341015        -9.2795
  28   1.0000      -0.312208        -8.4956
  29   1.0000      -0.307647        -8.3715
  30   1.0000      -0.306999        -8.3539
  31   1.0000      -0.246687        -6.7127
  32   1.0000      -0.218001        -5.9321
  33   0.0000      -0.038848        -1.0571
  34   0.0000      -0.038715        -1.0535
  35   0.0000       0.010405         0.2831
  36   0.0000       0.020164         0.5487
  37   0.0000       0.028407         0.7730

MULLIKEN ATOMIC CHARGES AND SPIN POPULATIONS
--------------------------------------------
   0 C :    1.446211    0.107121
   1 C :   -0.949045    0.477278
   2 C :   -0.496116   -0.221401
   3 C :   -0.949330    0.477291
   4 C :    1.445761    0.107174
   5 C :   -1.149286   -0.050102
   6 H :   -0.194840    0.005277
   7 C :    0.451641   -0.021918
   8 N :   -0.912122    0.100738
   9 H :    0.124856   -0.014490
  10 H :    0.518048   -0.031315
  11 H :    0.125088   -0.014475
  12 C :    0.450912   -0.021911
  13 N :   -0.911777    0.100733
Sum of atomic charges         :   -1.0000000

LOEWDIN ATOMIC CHARGES AND SPIN POPULATIONS
-------------------------------------------
   0 C :   -0.260698    0.101872
   1 C :    0.163595    0.203751
   2 C :    0.133992    0.047526
   3 C :    0.163591    0.203750
   4 C :   -0.260701    0.101873
   5 C :    0.146829    0.015210
   6 H :   -0.171435   -0.000398
   7 C :   -0.329083    0.043869
   8 N :    0.172365    0.075918
   9 H :   -0.205985    0.048362
  10 H :   -0.189770   -0.009882
  11 H :   -0.205984    0.048363
  12 C :   -0.329082    0.043869
  13 N :    0.172365    0.075916

  Mayer bond orders larger than 0.100000
B(  0-C ,  1-C ) :  -0.1592 B(  0-C ,  2-C ) :   0.2258 B(  0-C ,  4-C ) :   0.4668
B(  0-C ,  5-C ) :   0.3091 B(  0-C ,  6-H ) :  -0.2549 B(  0-C , 11-H ) :  -0.2019
B(  0-C , 12-C ) :   0.7491 B(  0-C , 13-N ) :   0.1238 B(  1-C ,  2-C ) :   1.0959
B(  1-C ,  3-C ) :  -0.1328 B(  1-C ,  5-C ) :  -0.2429 B(  1-C , 11-H ) :   1.2804
B(  1-C , 12-C ) :   0.3825 B(  2-C ,  3-C ) :   1.0965 B(  2-C ,  4-C ) :   0.2257
B(  2-C ,  6-H ) :  -0.1051 B(  2-C ,  9-H ) :  -0.1425 B(  2-C , 10-H ) :   0.6253
B(  2-C , 11-H ) :  -0.1424 B(  3-C ,  4-C ) :  -0.1589 B(  3-C ,  5-C ) :  -0.2432
B(  3-C ,  7-C ) :   0.3822 B(  3-C ,  9-H ) :   1.2808 B(  4-C ,  5-C ) :   0.3093
B(  4-C ,  6-H ) :  -0.2549 B(  4-C ,  7-C ) :   0.7490 B(  4-C ,  8-N ) :   0.1243
B(  4-C ,  9-H ) :  -0.2018 B(  5-C ,  6-H ) :   1.7069 B(  5-C ,  7-C ) :   0.1365
B(  5-C ,  8-N ) :   0.1112 B(  5-C ,  9-H ) :   0.1361 B(  5-C , 11-H ) :   0.1364
B(  5-C , 12-C ) :   0.1364 B(  5-C , 13-N ) :   0.1121 B(  6-H ,  9-H ) :   0.1099
B(  6-H , 11-H ) :   0.1098 B(  7-C ,  8-N ) :   1.5930 B(  7-C , 12-C ) :   0.2870
B( 12-C , 13-N ) :   1.5947

Dispersion correction           -0.005045928
FINAL SINGLE POINT ENERGY      -416.732940994678

DIPOLE MOMENT
-------------

Method             : SCF
Type of density    : Electron Density
Multiplicity       :   2
Irrep              :   0
Energy             :  -416.7278950668780340 Eh
Relativity type    :
Basis              : AO
                                X                 Y                 Z
Electronic contribution:     -0.000104819      -3.075934787       0.000037289
Nuclear contribution   :      0.000116803       4.952433895      -0.000030101
                        -----------------------------------------
Total Dipole Moment    :      0.000011984       1.876499108       0.000007188
                        -----------------------------------------
Magnitude (a.u.)       :      1.876499108
Magnitude (Debye)      :      4.769681680

VIBRATIONAL FREQUENCIES
-----------------------

Scaling factor for frequencies =  1.000000000  (already applied!)

     0:       0.00 cm**-1
     1:       0.00 cm**-1
     2:       0.00 cm**-1
     3:       0.00 cm**-1
     4:       0.00 cm**-1
     5:       0.00 cm**-1
     6:     114.01 cm**-1
     7:     116.49 cm**-1
     8:     132.06 cm**-1
     9:     193.92 cm**-1
    10:     329.05 cm**-1
    11:     401.73 cm**-1
    12:     429.57 cm**-1
    13:     472.76 cm**-1
    14:     502.98 cm**-1
    15:     569.21 cm**-1
    16:     574.54 cm**-1
    17:     622.10 cm**-1
    18:     630.76 cm**-1
    19:     668.47 cm**-1
    20:     678.26 cm**-1
    21:     699.09 cm**-1
    22:     888.23 cm**-1
    23:     920.81 cm**-1
    24:     961.84 cm**-1
    25:     991.46 cm**-1
    26:    1060.47 cm**-1
    27:    1102.58 cm**-1
    28:    1150.66 cm**-1
    29:    1280.12 cm**-1
    30:    1294.21 cm**-1
    31:    1369.59 cm**-1
    32:    1411.94 cm**-1
    33:    1420.04 cm**-1
    34:    1486.66 cm**-1
    35:    1532.64 cm**-1
    36:    2152.84 cm**-1
    37:    2249.50 cm**-1
    38:    3171.92 cm**-1
    39:    3194.28 cm**-1
    40:    3213.92 cm**-1
    41:    3220.95 cm**-1

IR SPECTRUM
-----------

 Mode   freq       eps      Int      T**2         TX        TY        TZ
       cm**-1   L/(mol*cm) km/mol    a.u.
----------------------------------------------------------------------------
  6:    114.01   0.003592   18.15  0.009831  (-0.000010 -0.099150 -0.000066)
  7:    116.49   0.001577    7.97  0.004224  (-0.000121  0.000098 -0.064995)
  8:    132.06   0.000000    0.00  0.000000  (-0.000003 -0.000139  0.000004)
  9:    193.92   0.000694    3.51  0.001117  (-0.033426  0.000006 -0.000185)
 10:    329.05   0.000000    0.00  0.000000  ( 0.000001 -0.000033  0.000000)
 11:    401.73   0.005401   27.30  0.004196  ( 0.000493 -0.000006 -0.064772)
 12:    429.57   0.015009   75.85  0.010903  (-0.104420  0.000001 -0.000034)
 13:    472.76   0.000089    0.45  0.000059  ( 0.000000  0.007669 -0.000005)
 14:    502.98   0.009052   45.75  0.005616  ( 0.000276  0.000002  0.074941)
 15:    569.21   0.000177    0.89  0.000097  (-0.000008  0.009837 -0.000002)
 16:    574.54   0.000000    0.00  0.000000  ( 0.000004 -0.000016 -0.000010)
 17:    622.10   0.000028    0.14  0.000014  ( 0.002066 -0.000000  0.003092)
 18:    630.76   0.028785  145.47  0.014241  (-0.000439  0.000002  0.119337)
 19:    668.47   0.001940    9.80  0.000906  ( 0.000039 -0.000001  0.030096)
 20:    678.26   0.000000    0.00  0.000000  ( 0.000007 -0.000163 -0.000033)
 21:    699.09   0.000007    0.04  0.000003  ( 0.000002  0.001761  0.000002)
 22:    888.23   0.030207  152.65  0.010613  ( 0.103017 -0.000000 -0.000166)
 23:    920.81   0.003696   18.68  0.001253  ( 0.000397 -0.000003 -0.035389)
 24:    961.84   0.000220    1.11  0.000071  (-0.000606 -0.000001 -0.008421)
 25:    991.46   0.000014    0.07  0.000005  ( 0.000024 -0.002133  0.000001)
 26:   1060.47   0.346264  1749.88  0.101895  ( 0.319210 -0.000008  0.000113)
 27:   1102.58   0.001780    8.99  0.000504  ( 0.000002 -0.022443  0.000002)
 28:   1150.66   0.020698  104.60  0.005613  ( 0.074923 -0.000001  0.000095)
 29:   1280.12   0.000005    0.03  0.000001  (-0.000000 -0.001122 -0.000001)
 30:   1294.21   0.053612  270.93  0.012927  ( 0.113697 -0.000003 -0.000116)
 31:   1369.59   0.001253    6.33  0.000286  ( 0.016899 -0.000003 -0.000065)
 32:   1411.94   0.222259  1123.21  0.049123  ( 0.221638 -0.000010 -0.000072)
 33:   1420.04   0.000324    1.64  0.000071  ( 0.000115  0.008439  0.000002)
 34:   1486.66   0.218800  1105.73  0.045928  ( 0.214308 -0.000001  0.000007)
 35:   1532.64   0.000139    0.70  0.000028  ( 0.000004  0.005319  0.000002)
 36:   2152.84   0.891741  4506.49  0.129262  ( 0.359530 -0.000008 -0.000058)
 37:   2249.50   0.074139  374.67  0.010285  ( 0.000003 -0.101415 -0.000002)
 38:   3171.92   0.004344   21.95  0.000427  ( 0.000001 -0.020672  0.000000)
 39:   3194.28   0.001025    5.18  0.000100  ( 0.000000 -0.010006  0.000000)
 40:   3213.92   0.006805   34.39  0.000661  (-0.025705  0.000013  0.000063)
 41:   3220.95   0.004782   24.16  0.000463  (-0.000016 -0.021524 -0.000000)

--------------------------
THERMOCHEMISTRY AT 298.15K
--------------------------

Temperature         ...   298.15 K
Pressure            ...     1.00 atm
Total Mass          ...   128.13 AMU
Quasi RRHO          ...     True
Cut-Off Frequency   ...     1.00 cm^-1

Throughout the following assumptions are being made:
  (1) The electronic state is orbitally nondegenerate
      but the spin degeneracy is treated
  (2) There are no thermally accessible electronically excited states
  (3) Hindered rotations indicated by low frequency modes are not
      treated as such but are treated as vibrations and this may
      cause some error
  (4) All equations used are the standard statistical mechanics
      equations for an ideal gas
  (5) All vibrations are strictly harmonic

freq.     114.01  E(vib)   ...       0.44
freq.     116.49  E(vib)   ...       0.44
freq.     132.06  E(vib)   ...       0.42
freq.     193.92  E(vib)   ...       0.36
freq.     329.05  E(vib)   ...       0.24
freq.     401.73  E(vib)   ...       0.19
freq.     429.57  E(vib)   ...       0.18
freq.     472.76  E(vib)   ...       0.15
freq.     502.98  E(vib)   ...       0.14
freq.     569.21  E(vib)   ...       0.11
freq.     574.54  E(vib)   ...       0.11
freq.     622.10  E(vib)   ...       0.09
freq.     630.76  E(vib)   ...       0.09
freq.     668.47  E(vib)   ...       0.08
freq.     678.26  E(vib)   ...       0.08
freq.     699.09  E(vib)   ...       0.07
freq.     888.23  E(vib)   ...       0.04
freq.     920.81  E(vib)   ...       0.03
freq.     961.84  E(vib)   ...       0.03
freq.     991.46  E(vib)   ...       0.02
freq.    1060.47  E(vib)   ...       0.02
freq.    1102.58  E(vib)   ...       0.02
freq.    1150.66  E(vib)   ...       0.01
freq.    1280.12  E(vib)   ...       0.01
freq.    1294.21  E(vib)   ...       0.01
freq.    1369.59  E(vib)   ...       0.01
freq.    1411.94  E(vib)   ...       0.00
freq.    1420.04  E(vib)   ...       0.00
freq.    1486.66  E(vib)   ...       0.00
freq.    1532.64  E(vib)   ...       0.00
freq.    2152.84  E(vib)   ...       0.00
freq.    2249.50  E(vib)   ...       0.00
freq.    3171.92  E(vib)   ...       0.00
freq.    3194.28  E(vib)   ...       0.00
freq.    3213.92  E(vib)   ...       0.00
freq.    3220.95  E(vib)   ...       0.00

------------
INNER ENERGY
------------

The inner energy is: U= E(el) + E(ZPE) + E(vib) + E(rot) + E(trans)
    E(el)   - is the total energy from the electronic structure calculation
              = E(kin-el) + E(nuc-el) + E(el-el) + E(nuc-nuc)
    E(ZPE)  - the the zero temperature vibrational energy from the frequency calculation
    E(vib)  - the the finite temperature correction to E(ZPE) due to population
              of excited vibrational states
    E(rot)  - is the rotational thermal energy
    E(trans)- is the translational thermal energy

Summary of contributions to the inner energy U:
Electronic energy                ...   -416.73294099 Eh
Zero point energy                ...      0.09388253 Eh      58.91 kcal/mol
Thermal vibrational correction   ...      0.00542097 Eh       3.40 kcal/mol
Thermal rotational correction    ...      0.00141627 Eh       0.89 kcal/mol
Thermal translational correction ...      0.00141627 Eh       0.89 kcal/mol
-----------------------------------------------------------------------
Total thermal energy                   -416.63080495 Eh

Summary of corrections to the electronic energy:
(perhaps to be used in another calculation)
Total thermal correction                  0.00825351 Eh       5.18 kcal/mol
Non-thermal (ZPE) correction              0.09388253 Eh      58.91 kcal/mol
-----------------------------------------------------------------------
Total correction                          0.10213604 Eh      64.09 kcal/mol

--------
ENTHALPY
--------

The enthalpy is H = U + kB*T
                kB is Boltzmann's constant
Total thermal energy              ...   -416.63080495 Eh
Thermal Enthalpy correction       ...      0.00094421 Eh       0.59 kcal/mol
-----------------------------------------------------------------------
Total Enthalpy                    ...   -416.62986074 Eh

Note: Rotational entropy computed according to Herzberg
Infrared and Raman Spectra, Chapter V,1, Van Nostrand Reinhold, 1945
Point Group:  C2, Symmetry Number:   2
Rotational constants in cm-1:     0.088110     0.030800     0.022822

Vibrational entropy computed according to the QRRHO of S. Grimme
Chem.Eur.J. 2012 18 9955 using a reference frequency of 100.0 cm-1

-------
ENTROPY
-------

The entropy contributions are T*S = T*(S(el)+S(vib)+S(rot)+S(trans))
     S(el)   - electronic entropy
     S(vib)  - vibrational entropy
     S(rot)  - rotational entropy
     S(trans)- translational entropy
The entropies will be listed as multiplied by the temperature to get
units of energy

Electronic entropy                ...      0.00065446 Eh      0.41 kcal/mol
Vibrational entropy               ...      0.00908450 Eh      5.70 kcal/mol
Rotational entropy                ...      0.01343064 Eh      8.43 kcal/mol
Translational entropy             ...      0.01922234 Eh     12.06 kcal/mol
-----------------------------------------------------------------------
Final entropy term                ...      0.04239194 Eh     26.60 kcal/mol

In case the symmetry of your molecule has not been determined correctly
or in case you have a reason to use a different symmetry number we print
out the resulting rotational entropy values for sn=1,12:

 non-linear molecules -----------------------------------
|  sn= 1 | S(rot)=       0.01408510 Eh      8.84 kcal/mol|
|  sn= 2 | S(rot)=       0.01343064 Eh      8.43 kcal/mol|
|  sn= 3 | S(rot)=       0.01304781 Eh      8.19 kcal/mol|
|  sn= 4 | S(rot)=       0.01277618 Eh      8.02 kcal/mol|
|  sn= 5 | S(rot)=       0.01256550 Eh      7.88 kcal/mol|
|  sn= 6 | S(rot)=       0.01239335 Eh      7.78 kcal/mol|
|  sn= 7 | S(rot)=       0.01224781 Eh      7.69 kcal/mol|
|  sn= 8 | S(rot)=       0.01212173 Eh      7.61 kcal/mol|
|  sn= 9 | S(rot)=       0.01201052 Eh      7.54 kcal/mol|
|  sn=10 | S(rot)=       0.01191104 Eh      7.47 kcal/mol|
|  sn=11 | S(rot)=       0.01182105 Eh      7.42 kcal/mol|
|  sn=12 | S(rot)=       0.01173890 Eh      7.37 kcal/mol|
 linear molecules ---------------------------------------
|  Dinfh | S(rot)=       0.00889483 Eh      5.58 kcal/mol|
|  Cinfv | S(rot)=       0.00954929 Eh      5.99 kcal/mol|
 --------------------------------------------------------

-------------------
GIBBS FREE ENERGY
-------------------

The Gibbs free energy is G = H - T*S

Total enthalpy                    ...   -416.62986074 Eh
Total entropy correction          ...     -0.04239194 Eh    -26.60 kcal/mol
-----------------------------------------------------------------------
Final Gibbs free energy         ...   -416.67225269 Eh

                             ****ORCA TERMINATED NORMALLY****
TOTAL RUN TIME: 0 days 0 hours 59 minutes 18 seconds 936 msec
