                         Program Version 6.0.0  -   RELEASE  -
|  1> !r2SCAN aug-cc-pVTZ d3 TightSCF SlowConv RIJCOSX defgrid2
|  2>
|  3> %pal
|  4> nprocs 4
|  5> end
|  6>
|  7> %scf
|  8> MaxIter 1500
|  9> end
| 10>
| 11> %maxcore 3000
| 12>
| 13> !CPCM
| 14> %cpcm smd true
| 15> SMDsolvent "MeCN"
| 16> surfacetype gepol_ses
| 17> rsolv 2.19
| 18> end
| 19>
| 20> * xyz 1 2
| 21> C           4.10305459754862      1.22314281313599      0.00027521208978
| 22> C           4.79422039490347      0.00010404925663      0.00001474520982
| 23> C           4.10316750393443     -1.22299872812941     -0.00027809333468
| 24> C           2.72290951060849     -1.23322125226980     -0.00030728966902
| 25> C           2.00889918594533     -0.00002719804681     -0.00003028315102
| 26> C           2.72279658019783      1.23323312421706      0.00025720757138
| 27> H           2.16604305248318      2.17317802213121      0.00045841677356
| 28> C           0.61901432200333     -0.00007429013767     -0.00003574573307
| 29> C          -0.61901896459109     -0.00007733941421     -0.00002817694639
| 30> C          -2.00890183862324     -0.00001737756946      0.00000366265820
| 31> C          -2.72291439835066     -1.23320607784155      0.00031293455070
| 32> C          -4.10317069141964     -1.22298169255025      0.00034320554116
| 33> C          -4.79421968584138      0.00012496763477      0.00007504669623
| 34> C          -4.10304842490867      1.22316147289229     -0.00022860923121
| 35> C          -2.72279167353165      1.23324700039037     -0.00027265723971
| 36> H          -2.16603414552242      2.17318982303946     -0.00050220004345
| 37> H          -4.65909006495211      2.16415224923801     -0.00043329601508
| 38> H          -5.88829015885600      0.00017960004272      0.00010113825142
| 39> H          -4.65930720000531     -2.16391674544739      0.00057854154628
| 40> H          -2.16624983163931     -2.17320454462336      0.00052121598527
| 41> H           2.16624496851568     -2.17322025060010     -0.00052876061055
| 42> H           4.65930013671208     -2.16393287374248     -0.00048580415313
| 43> H           5.88829198918564      0.00015431021773      0.00003862697270
| 44> H           4.65910043620338      2.16413103817623      0.00049636228080
| 45> *
| 46>
| 47>                          ****END OF INPUT****

CARTESIAN COORDINATES (ANGSTROEM)
---------------------------------
  C      4.103055    1.223143    0.000275
  C      4.794220    0.000104    0.000015
  C      4.103168   -1.222999   -0.000278
  C      2.722910   -1.233221   -0.000307
  C      2.008899   -0.000027   -0.000030
  C      2.722797    1.233233    0.000257
  H      2.166043    2.173178    0.000458
  C      0.619014   -0.000074   -0.000036
  C     -0.619019   -0.000077   -0.000028
  C     -2.008902   -0.000017    0.000004
  C     -2.722914   -1.233206    0.000313
  C     -4.103171   -1.222982    0.000343
  C     -4.794220    0.000125    0.000075
  C     -4.103048    1.223161   -0.000229
  C     -2.722792    1.233247   -0.000273
  H     -2.166034    2.173190   -0.000502
  H     -4.659090    2.164152   -0.000433
  H     -5.888290    0.000180    0.000101
  H     -4.659307   -2.163917    0.000579
  H     -2.166250   -2.173205    0.000521
  H      2.166245   -2.173220   -0.000529
  H      4.659300   -2.163933   -0.000486
  H      5.888292    0.000154    0.000039
  H      4.659100    2.164131    0.000496

 Total Charge           Charge          ....    1
 Multiplicity           Mult            ....    2
 Number of Electrons    NEL             ....   93
 Basis Dimension        Dim             ....  874

ORBITAL ENERGIES
----------------
                 SPIN UP ORBITALS
  NO   OCC          E(Eh)            E(eV)
   0   1.0000     -10.112748      -275.1819
   1   1.0000     -10.112740      -275.1816
   2   1.0000     -10.106120      -275.0015
   3   1.0000     -10.104412      -274.9550
   4   1.0000     -10.085015      -274.4272
   5   1.0000     -10.085012      -274.4271
   6   1.0000     -10.083218      -274.3783
   7   1.0000     -10.083209      -274.3781
   8   1.0000     -10.083205      -274.3780
   9   1.0000     -10.083204      -274.3779
  10   1.0000     -10.069116      -273.9946
  11   1.0000     -10.069114      -273.9945
  12   1.0000     -10.069112      -273.9945
  13   1.0000     -10.069110      -273.9944
  14   1.0000      -0.869589       -23.6627
  15   1.0000      -0.863535       -23.4980
  16   1.0000      -0.806125       -21.9358
  17   1.0000      -0.772250       -21.0140
  18   1.0000      -0.748965       -20.3804
  19   1.0000      -0.748783       -20.3754
  20   1.0000      -0.726158       -19.7598
  21   1.0000      -0.643250       -17.5037
  22   1.0000      -0.612542       -16.6681
  23   1.0000      -0.604188       -16.4408
  24   1.0000      -0.602560       -16.3965
  25   1.0000      -0.541855       -14.7446
  26   1.0000      -0.525589       -14.3020
  27   1.0000      -0.480274       -13.0689
  28   1.0000      -0.471096       -12.8192
  29   1.0000      -0.460903       -12.5418
  30   1.0000      -0.455122       -12.3845
  31   1.0000      -0.426491       -11.6054
  32   1.0000      -0.422471       -11.4960
  33   1.0000      -0.417116       -11.3503
  34   1.0000      -0.416763       -11.3407
  35   1.0000      -0.408174       -11.1070
  36   1.0000      -0.388466       -10.5707
  37   1.0000      -0.353369        -9.6156
  38   1.0000      -0.350339        -9.5332
  39   1.0000      -0.346041        -9.4162
  40   1.0000      -0.343518        -9.3476
  41   1.0000      -0.339853        -9.2479
  42   1.0000      -0.294673        -8.0185
  43   1.0000      -0.289756        -7.8847
  44   1.0000      -0.273211        -7.4345
  45   1.0000      -0.273121        -7.4320
  46   1.0000      -0.243638        -6.6297
  47   0.0000      -0.125119        -3.4047
  48   0.0000      -0.064975        -1.7681
  49   0.0000      -0.063854        -1.7375
  50   0.0000      -0.063299        -1.7225
  51   0.0000      -0.028836        -0.7847

                 SPIN DOWN ORBITALS
  NO   OCC          E(Eh)            E(eV)
   0   1.0000     -10.112000      -275.1615
   1   1.0000     -10.111991      -275.1613
   2   1.0000     -10.103329      -274.9255
   3   1.0000     -10.101622      -274.8791
   4   1.0000     -10.081312      -274.3264
   5   1.0000     -10.081308      -274.3263
   6   1.0000     -10.081292      -274.3259
   7   1.0000     -10.081290      -274.3259
   8   1.0000     -10.081289      -274.3258
   9   1.0000     -10.081281      -274.3256
  10   1.0000     -10.070192      -274.0239
  11   1.0000     -10.070191      -274.0238
  12   1.0000     -10.070188      -274.0237
  13   1.0000     -10.070187      -274.0237
  14   1.0000      -0.864510       -23.5245
  15   1.0000      -0.859293       -23.3826
  16   1.0000      -0.798063       -21.7164
  17   1.0000      -0.767541       -20.8859
  18   1.0000      -0.747310       -20.3353
  19   1.0000      -0.747143       -20.3308
  20   1.0000      -0.714919       -19.4539
  21   1.0000      -0.637834       -17.3563
  22   1.0000      -0.608101       -16.5473
  23   1.0000      -0.602283       -16.3890
  24   1.0000      -0.600575       -16.3425
  25   1.0000      -0.540736       -14.7142
  26   1.0000      -0.525166       -14.2905
  27   1.0000      -0.477661       -12.9978
  28   1.0000      -0.468901       -12.7595
  29   1.0000      -0.459994       -12.5171
  30   1.0000      -0.454201       -12.3594
  31   1.0000      -0.425004       -11.5650
  32   1.0000      -0.421096       -11.4586
  33   1.0000      -0.416980       -11.3466
  34   1.0000      -0.416659       -11.3379
  35   1.0000      -0.393191       -10.6993
  36   1.0000      -0.377562       -10.2740
  37   1.0000      -0.352391        -9.5891
  38   1.0000      -0.349591        -9.5128
  39   1.0000      -0.345100        -9.3906
  40   1.0000      -0.339061        -9.2263
  41   1.0000      -0.326102        -8.8737
  42   1.0000      -0.286782        -7.8037
  43   1.0000      -0.279894        -7.6163
  44   1.0000      -0.268799        -7.3144
  45   1.0000      -0.268721        -7.3123
  46   0.0000      -0.216382        -5.8881
  47   0.0000      -0.106026        -2.8851
  48   0.0000      -0.059093        -1.6080
  49   0.0000      -0.057756        -1.5716
  50   0.0000      -0.047436        -1.2908

MULLIKEN ATOMIC CHARGES AND SPIN POPULATIONS
--------------------------------------------
   0 C :   -0.704987   -0.088164
   1 C :    0.147320    0.226852
   2 C :   -0.705018   -0.088157
   3 C :   -1.010424    0.112907
   4 C :    1.724678    0.067590
   5 C :   -1.010335    0.112926
   6 H :   -0.307520    0.014223
   7 C :    1.098765    0.118693
   8 C :    1.097933    0.118728
   9 C :    1.724735    0.067608
  10 C :   -1.010408    0.112940
  11 C :   -0.705033   -0.088175
  12 C :    0.147334    0.226842
  13 C :   -0.705048   -0.088167
  14 C :   -1.010423    0.112959
  15 H :   -0.307533    0.014268
  16 H :    0.574191   -0.002721
  17 H :    0.427169    0.014232
  18 H :    0.574194   -0.002719
  19 H :   -0.307545    0.014273
  20 H :   -0.307513    0.014240
  21 H :    0.574176   -0.002710
  22 H :    0.427147    0.014237
  23 H :    0.574147   -0.002708
Sum of atomic charges         :    1.0000000

LOEWDIN ATOMIC CHARGES AND SPIN POPULATIONS
-------------------------------------------
   0 C :    0.243821    0.017857
   1 C :    0.252464    0.100858
   2 C :    0.243820    0.017859
   3 C :    0.243516    0.057071
   4 C :   -0.160341    0.078425
   5 C :    0.243520    0.057073
   6 H :   -0.144583    0.010142
   7 C :    0.173037    0.136356
   8 C :    0.173047    0.136363
   9 C :   -0.160346    0.078416
  10 C :    0.243506    0.057067
  11 C :    0.243810    0.017857
  12 C :    0.252454    0.100850
  13 C :    0.243809    0.017855
  14 C :    0.243512    0.057070
  15 H :   -0.144582    0.010142
  16 H :   -0.152848   -0.005057
  17 H :   -0.144948    0.024340
  18 H :   -0.152847   -0.005056
  19 H :   -0.144585    0.010141
  20 H :   -0.144586    0.010141
  21 H :   -0.152851   -0.005056
  22 H :   -0.144946    0.024342
  23 H :   -0.152849   -0.005057

  Mayer bond orders larger than 0.100000
B(  0-C ,  1-C ) :   0.9647 B(  0-C ,  2-C ) :   0.3245 B(  0-C ,  4-C ) :   0.2365
B(  0-C ,  5-C ) :   1.3230 B(  0-C ,  7-C ) :   0.5212 B(  0-C ,  8-C ) :  -0.6684
B(  0-C , 20-H ) :  -0.1076 B(  0-C , 23-H ) :   0.3273 B(  1-C ,  2-C ) :   0.9646
B(  1-C ,  3-C ) :  -0.4008 B(  1-C ,  4-C ) :  -0.3082 B(  1-C ,  5-C ) :  -0.4007
B(  1-C ,  6-H ) :  -0.1259 B(  1-C ,  7-C ) :  -0.1114 B(  1-C ,  8-C ) :   0.8143
B(  1-C , 20-H ) :  -0.1259 B(  1-C , 21-H ) :   0.1380 B(  1-C , 22-H ) :   0.6855
B(  1-C , 23-H ) :   0.1380 B(  2-C ,  3-C ) :   1.3230 B(  2-C ,  4-C ) :   0.2364
B(  2-C ,  6-H ) :  -0.1076 B(  2-C ,  7-C ) :   0.5211 B(  2-C ,  8-C ) :  -0.6682
B(  2-C , 21-H ) :   0.3273 B(  3-C ,  5-C ) :  -0.8526 B(  3-C ,  6-H ) :   0.3011
B(  3-C ,  7-C ) :   0.1213 B(  3-C , 20-H ) :   2.2473 B(  3-C , 21-H ) :  -0.1928
B(  4-C ,  6-H ) :   0.2401 B(  4-C ,  7-C ) :   0.3527 B(  4-C ,  8-C ) :  -0.1263
B(  4-C ,  9-C ) :   0.2174 B(  4-C , 15-H ) :  -0.1248 B(  4-C , 16-H ) :   0.1375
B(  4-C , 17-H ) :  -0.1109 B(  4-C , 18-H ) :   0.1375 B(  4-C , 19-H ) :  -0.1249
B(  4-C , 20-H ) :   0.2401 B(  5-C ,  6-H ) :   2.2473 B(  5-C ,  7-C ) :   0.1212
B(  5-C , 20-H ) :   0.3010 B(  5-C , 23-H ) :  -0.1929 B(  6-H ,  7-C ) :  -0.7528
B(  6-H ,  8-C ) :  -0.3662 B(  6-H ,  9-C ) :  -0.1249 B(  6-H , 20-H ) :   0.5022
B(  6-H , 21-H ) :  -0.1448 B(  7-C ,  8-C ) :   4.2540 B(  7-C ,  9-C ) :  -0.1263
B(  7-C , 11-C ) :  -0.6682 B(  7-C , 12-C ) :   0.8143 B(  7-C , 13-C ) :  -0.6683
B(  7-C , 15-H ) :  -0.3668 B(  7-C , 17-H ) :   0.5057 B(  7-C , 19-H ) :  -0.3667
B(  7-C , 20-H ) :  -0.7525 B(  7-C , 21-H ) :   0.4158 B(  7-C , 22-H ) :  -0.5218
B(  7-C , 23-H ) :   0.4158 B(  8-C ,  9-C ) :   0.3529 B(  8-C , 10-C ) :   0.1214
B(  8-C , 11-C ) :   0.5213 B(  8-C , 12-C ) :  -0.1115 B(  8-C , 13-C ) :   0.5213
B(  8-C , 14-C ) :   0.1215 B(  8-C , 15-H ) :  -0.7523 B(  8-C , 16-H ) :   0.4157
B(  8-C , 17-H ) :  -0.5220 B(  8-C , 18-H ) :   0.4157 B(  8-C , 19-H ) :  -0.7526
B(  8-C , 20-H ) :  -0.3666 B(  8-C , 22-H ) :   0.5054 B(  9-C , 11-C ) :   0.2363
B(  9-C , 12-C ) :  -0.3080 B(  9-C , 13-C ) :   0.2364 B(  9-C , 15-H ) :   0.2399
B(  9-C , 19-H ) :   0.2400 B(  9-C , 20-H ) :  -0.1248 B(  9-C , 21-H ) :   0.1375
B(  9-C , 22-H ) :  -0.1109 B(  9-C , 23-H ) :   0.1375 B( 10-C , 11-C ) :   1.3229
B( 10-C , 12-C ) :  -0.4008 B( 10-C , 14-C ) :  -0.8527 B( 10-C , 15-H ) :   0.3011
B( 10-C , 18-H ) :  -0.1928 B( 10-C , 19-H ) :   2.2474 B( 11-C , 12-C ) :   0.9646
B( 11-C , 13-C ) :   0.3245 B( 11-C , 15-H ) :  -0.1076 B( 11-C , 18-H ) :   0.3272
B( 12-C , 13-C ) :   0.9646 B( 12-C , 14-C ) :  -0.4008 B( 12-C , 15-H ) :  -0.1259
B( 12-C , 16-H ) :   0.1381 B( 12-C , 17-H ) :   0.6855 B( 12-C , 18-H ) :   0.1381
B( 12-C , 19-H ) :  -0.1259 B( 13-C , 14-C ) :   1.3230 B( 13-C , 16-H ) :   0.3272
B( 13-C , 19-H ) :  -0.1076 B( 14-C , 15-H ) :   2.2475 B( 14-C , 16-H ) :  -0.1928
B( 14-C , 19-H ) :   0.3011 B( 15-H , 18-H ) :  -0.1448 B( 15-H , 19-H ) :   0.5024
B( 16-H , 19-H ) :  -0.1448 B( 20-H , 23-H ) :  -0.1448

Dispersion correction           -0.008309921
FINAL SINGLE POINT ENERGY      -539.142917669590

DIPOLE MOMENT
-------------

Method             : SCF
Type of density    : Electron Density
Multiplicity       :   2
Irrep              :   0
Energy             :  -539.1346077487596631 Eh
Relativity type    :
Basis              : AO
                                X                 Y                 Z
Electronic contribution:      0.000300012      -0.000214986      -0.000137591
Nuclear contribution   :      0.000010392       0.000370111       0.000152227
                        -----------------------------------------
Total Dipole Moment    :      0.000310404       0.000155125       0.000014636
                        -----------------------------------------
Magnitude (a.u.)       :      0.000347316
Magnitude (Debye)      :      0.000882807

Rotational constants in cm-1:             0.092188             0.008430             0.007724
Rotational constants in MHz :          2763.733748           252.731480           231.556631

                             ****ORCA TERMINATED NORMALLY****
TOTAL RUN TIME: 0 days 0 hours 7 minutes 7 seconds 774 msec
