                         Program Version 6.0.0  -   RELEASE  -
|  1> !r2SCAN aug-cc-pVTZ d3 TightSCF SlowConv RIJCOSX defgrid2
|  2>
|  3> %pal
|  4> nprocs 4
|  5> end
|  6>
|  7> %scf
|  8> MaxIter 1500
|  9> end
| 10>
| 11> %maxcore 3000
| 12>
| 13> !CPCM
| 14> %cpcm smd true
| 15> SMDsolvent "MeCN"
| 16> surfacetype gepol_ses
| 17> rsolv 2.19
| 18> end
| 19>
| 20> * xyz 0 1
| 21> C          -0.49592270970750      1.20689036506876     -0.03130110264914
| 22> C          -1.88685532532519      1.19699753212455     -0.02314506175738
| 23> C          -2.60125975900159      0.00006218322477     -0.01917601586061
| 24> C          -1.88691051129410     -1.19690511286666     -0.02342725949643
| 25> C          -0.49597917173478     -1.20686134487156     -0.03159202517744
| 26> C           0.23868603456831     -0.00000172653772     -0.03609509009819
| 27> N           1.61626182022358     -0.00003106078646     -0.04469127469160
| 28> C           2.33183955992311      1.24597481666428     -0.04486665705751
| 29> H           3.41338665254704      1.04576364513015     -0.05323272367948
| 30> H           2.09753310431419      1.86285731996164     -0.93541110907656
| 31> H           2.10988003494310      1.85696995864317      0.85303702382408
| 32> C           2.33179343347907     -1.24606302804888     -0.04453387362300
| 33> H           3.41335300622739     -1.04589190456372     -0.05217912937846
| 34> H           2.10924230348017     -1.85707031820411      0.85320726726296
| 35> H           2.09802467704190     -1.86292175713273     -0.93524555395099
| 36> H           0.02088202703341     -2.16757371924062     -0.03449261449586
| 37> H          -2.42069136544180     -2.15271053199358     -0.02020648268014
| 38> H          -3.69441433931262      0.00008648240457     -0.01268972961591
| 39> H          -2.42058983097200      2.15282777025830     -0.01968144249458
| 40> H           0.02098115900830      2.16758023076587     -0.03391284530377
| 41> *
| 42>
| 43>                          ****END OF INPUT****

CARTESIAN COORDINATES (ANGSTROEM)
---------------------------------
  C     -0.495923    1.206890   -0.031301
  C     -1.886855    1.196998   -0.023145
  C     -2.601260    0.000062   -0.019176
  C     -1.886911   -1.196905   -0.023427
  C     -0.495979   -1.206861   -0.031592
  C      0.238686   -0.000002   -0.036095
  N      1.616262   -0.000031   -0.044691
  C      2.331840    1.245975   -0.044867
  H      3.413387    1.045764   -0.053233
  H      2.097533    1.862857   -0.935411
  H      2.109880    1.856970    0.853037
  C      2.331793   -1.246063   -0.044534
  H      3.413353   -1.045892   -0.052179
  H      2.109242   -1.857070    0.853207
  H      2.098025   -1.862922   -0.935246
  H      0.020882   -2.167574   -0.034493
  H     -2.420691   -2.152711   -0.020206
  H     -3.694414    0.000086   -0.012690
  H     -2.420590    2.152828   -0.019681
  H      0.020981    2.167580   -0.033913

 Total Charge           Charge          ....    0
 Multiplicity           Mult            ....    1
 Number of Electrons    NEL             ....   66
 Basis Dimension        Dim             ....  667

ORBITAL ENERGIES
----------------

  NO   OCC          E(Eh)            E(eV)
   0   2.0000     -14.182940      -385.9374
   1   2.0000     -10.075913      -274.1795
   2   2.0000     -10.055614      -273.6272
   3   2.0000     -10.055598      -273.6267
   4   2.0000     -10.035085      -273.0685
   5   2.0000     -10.035069      -273.0681
   6   2.0000     -10.028766      -272.8966
   7   2.0000     -10.028759      -272.8964
   8   2.0000     -10.024018      -272.7674
   9   2.0000      -0.916298       -24.9337
  10   2.0000      -0.807302       -21.9678
  11   2.0000      -0.711821       -19.3696
  12   2.0000      -0.709385       -19.3034
  13   2.0000      -0.679893       -18.5008
  14   2.0000      -0.619885       -16.8679
  15   2.0000      -0.562972       -15.3192
  16   2.0000      -0.537591       -14.6286
  17   2.0000      -0.492023       -13.3886
  18   2.0000      -0.444529       -12.0962
  19   2.0000      -0.437568       -11.9068
  20   2.0000      -0.426964       -11.6183
  21   2.0000      -0.407100       -11.0777
  22   2.0000      -0.384615       -10.4659
  23   2.0000      -0.381057       -10.3691
  24   2.0000      -0.363004        -9.8778
  25   2.0000      -0.353920        -9.6306
  26   2.0000      -0.341548        -9.2940
  27   2.0000      -0.335723        -9.1355
  28   2.0000      -0.319189        -8.6856
  29   2.0000      -0.296624        -8.0715
  30   2.0000      -0.261831        -7.1248
  31   2.0000      -0.234446        -6.3796
  32   2.0000      -0.171232        -4.6595
  33   0.0000      -0.032236        -0.8772
  34   0.0000      -0.013546        -0.3686
  35   0.0000       0.004061         0.1105
  36   0.0000       0.021076         0.5735
  37   0.0000       0.023469         0.6386

MULLIKEN ATOMIC CHARGES
-----------------------
   0 C :   -0.612966
   1 C :   -0.583183
   2 C :   -0.542841
   3 C :   -0.583191
   4 C :   -0.612969
   5 C :    1.507225
   6 N :   -0.096447
   7 C :   -0.852071
   8 H :    0.299994
   9 H :    0.204010
  10 H :    0.205596
  11 C :   -0.851908
  12 H :    0.299973
  13 H :    0.205457
  14 H :    0.204174
  15 H :    0.288257
  16 H :    0.369172
  17 H :    0.494290
  18 H :    0.369171
  19 H :    0.288259
Sum of atomic charges:    0.0000000

LOEWDIN ATOMIC CHARGES
----------------------
   0 C :    0.202532
   1 C :    0.164148
   2 C :    0.159506
   3 C :    0.164147
   4 C :    0.202531
   5 C :   -0.233310
   6 N :    0.228580
   7 C :    0.472968
   8 H :   -0.162330
   9 H :   -0.143799
  10 H :   -0.143296
  11 C :    0.472976
  12 H :   -0.162311
  13 H :   -0.143329
  14 H :   -0.143778
  15 H :   -0.199655
  16 H :   -0.174681
  17 H :   -0.186562
  18 H :   -0.174681
  19 H :   -0.199654

  Mayer bond orders larger than 0.100000
B(  0-C ,  1-C ) :   0.8508 B(  0-C ,  2-C ) :   0.4036 B(  0-C ,  3-C ) :  -0.1894
B(  0-C ,  4-C ) :   0.4097 B(  0-C ,  5-C ) :   0.3211 B(  0-C ,  6-N ) :  -0.3347
B(  0-C ,  7-C ) :  -0.1505 B(  0-C , 19-H ) :   0.6410 B(  1-C ,  2-C ) :   0.9505
B(  1-C ,  3-C ) :  -0.1163 B(  1-C ,  4-C ) :  -0.1894 B(  1-C ,  5-C ) :  -0.2732
B(  1-C , 18-H ) :   0.7690 B(  2-C ,  3-C ) :   0.9506 B(  2-C ,  4-C ) :   0.4035
B(  2-C ,  5-C ) :  -0.2919 B(  2-C , 17-H ) :   0.4786 B(  3-C ,  4-C ) :   0.8508
B(  3-C ,  5-C ) :  -0.2732 B(  3-C , 16-H ) :   0.7690 B(  4-C ,  5-C ) :   0.3211
B(  4-C ,  6-N ) :  -0.3347 B(  4-C , 11-C ) :  -0.1505 B(  4-C , 15-H ) :   0.6410
B(  5-C ,  6-N ) :   0.4031 B(  5-C ,  7-C ) :  -0.1361 B(  5-C , 11-C ) :  -0.1361
B(  5-C , 15-H ) :  -0.1132 B(  5-C , 19-H ) :  -0.1132 B(  6-N ,  7-C ) :   1.1061
B(  6-N , 11-C ) :   1.1060 B(  7-C ,  8-H ) :   0.8583 B(  7-C ,  9-H ) :   1.0164
B(  7-C , 10-H ) :   1.0139 B(  7-C , 19-H ) :  -0.1175 B( 11-C , 12-H ) :   0.8583
B( 11-C , 13-H ) :   1.0140 B( 11-C , 14-H ) :   1.0162 B( 11-C , 15-H ) :  -0.1174

Dispersion correction           -0.006116580
FINAL SINGLE POINT ENERGY      -366.143198436906

DIPOLE MOMENT
-------------

Method             : SCF
Type of density    : Electron Density
Multiplicity       :   1
Irrep              :   0
Energy             :  -366.1370818573999486 Eh
Relativity type    :
Basis              : AO
                                X                 Y                 Z
Electronic contribution:     -5.059195875       0.000173013       0.015073887
Nuclear contribution   :      6.353119330      -0.000129568      -0.019904796
                        -----------------------------------------
Total Dipole Moment    :      1.293923455       0.000043445      -0.004830909
                        -----------------------------------------
Magnitude (a.u.)       :      1.293932474
Magnitude (Debye)      :      3.288914974

Rotational constants in cm-1:             0.116345             0.041042             0.030696
Rotational constants in MHz :          3487.926774          1230.417082           920.238252

                             ****ORCA TERMINATED NORMALLY****
TOTAL RUN TIME: 0 days 0 hours 3 minutes 17 seconds 463 msec
