                         Program Version 6.0.0  -   RELEASE  -
|  1> !B3LYP aug-cc-pVTZ d3 TightSCF SlowConv RIJCOSX defgrid2
|  2>
|  3> %pal
|  4> nprocs 4
|  5> end
|  6>
|  7> %scf
|  8> MaxIter 1500
|  9> end
| 10>
| 11> %maxcore 3000
| 12>
| 13> !CPCM
| 14> %cpcm smd true
| 15> SMDsolvent "MeCN"
| 16> surfacetype gepol_ses
| 17> rsolv 2.19
| 18> end
| 19>
| 20> * xyz 0 1
| 21> C           0.48360567195606     -1.21229390689687     -0.00037134428610
| 22> C           1.87690194124081     -1.23618350779417     -0.00001608088298
| 23> C           2.59422075073626     -0.04047481851856      0.00022611932314
| 24> C           1.91690889899697      1.18098236414826      0.00010944657389
| 25> C           0.52720301634613      1.20350626322595     -0.00024479123569
| 26> C          -0.20304994422496      0.00795284786184     -0.00051856197987
| 27> C          -1.69823329325947      0.10073243557531     -0.00093855711764
| 28> O          -2.24783450756777      1.18012430228825      0.00047343643148
| 29> C          -2.49873773674618     -1.18055979411728      0.00001226054872
| 30> H          -3.56874245805795     -0.92684719916367      0.00028072085676
| 31> H          -2.26765286226878     -1.79214055957540      0.88960271021885
| 32> H          -2.26826604600788     -1.79314451916799     -0.88902976580653
| 33> H          -0.03046089965679      2.14367830490160     -0.00034789708130
| 34> H           2.47945545467799      2.11929230948718      0.00030005734770
| 35> H           3.68826884274775     -0.06009102388695      0.00051141148870
| 36> H           2.40583590173159     -2.19363249350041      0.00008658903805
| 37> H          -0.06689973064377     -2.15667190486707     -0.00053355343717
| 38> *
| 39>
| 40>                          ****END OF INPUT****

CARTESIAN COORDINATES (ANGSTROEM)
---------------------------------
  C      0.483606   -1.212294   -0.000371
  C      1.876902   -1.236184   -0.000016
  C      2.594221   -0.040475    0.000226
  C      1.916909    1.180982    0.000109
  C      0.527203    1.203506   -0.000245
  C     -0.203050    0.007953   -0.000519
  C     -1.698233    0.100732   -0.000939
  O     -2.247835    1.180124    0.000473
  C     -2.498738   -1.180560    0.000012
  H     -3.568742   -0.926847    0.000281
  H     -2.267653   -1.792141    0.889603
  H     -2.268266   -1.793145   -0.889030
  H     -0.030461    2.143678   -0.000348
  H      2.479455    2.119292    0.000300
  H      3.688269   -0.060091    0.000511
  H      2.405836   -2.193632    0.000087
  H     -0.066900   -2.156672   -0.000534

 Total Charge           Charge          ....    0
 Multiplicity           Mult            ....    1
 Number of Electrons    NEL             ....   64
 Basis Dimension        Dim             ....  598

ORBITAL ENERGIES
----------------

  NO   OCC          E(Eh)            E(eV)
   0   2.0000     -19.116556      -520.1879
   1   2.0000     -10.263457      -279.2829
   2   2.0000     -10.186731      -277.1950
   3   2.0000     -10.185505      -277.1617
   4   2.0000     -10.184177      -277.1255
   5   2.0000     -10.181662      -277.0571
   6   2.0000     -10.180618      -277.0287
   7   2.0000     -10.180285      -277.0196
   8   2.0000     -10.166471      -276.6437
   9   2.0000      -1.047746       -28.5106
  10   2.0000      -0.862666       -23.4743
  11   2.0000      -0.771245       -20.9866
  12   2.0000      -0.751007       -20.4359
  13   2.0000      -0.724113       -19.7041
  14   2.0000      -0.626847       -17.0574
  15   2.0000      -0.605423       -16.4744
  16   2.0000      -0.549403       -14.9500
  17   2.0000      -0.508548       -13.8383
  18   2.0000      -0.465979       -12.6799
  19   2.0000      -0.458730       -12.4827
  20   2.0000      -0.441368       -12.0102
  21   2.0000      -0.440094       -11.9756
  22   2.0000      -0.422950       -11.5090
  23   2.0000      -0.420237       -11.4352
  24   2.0000      -0.382895       -10.4191
  25   2.0000      -0.378811       -10.3080
  26   2.0000      -0.357369        -9.7245
  27   2.0000      -0.356518        -9.7013
  28   2.0000      -0.343308        -9.3419
  29   2.0000      -0.264125        -7.1872
  30   2.0000      -0.261805        -7.1241
  31   2.0000      -0.257588        -7.0093
  32   0.0000      -0.062130        -1.6906
  33   0.0000      -0.018339        -0.4990
  34   0.0000      -0.004167        -0.1134
  35   0.0000       0.009051         0.2463
  36   0.0000       0.014589         0.3970

MULLIKEN ATOMIC CHARGES
-----------------------
   0 C :   -0.566259
   1 C :   -0.765331
   2 C :   -0.238489
   3 C :   -0.574281
   4 C :   -1.025554
   5 C :    1.599794
   6 C :    0.788096
   7 O :   -0.900494
   8 C :   -0.577403
   9 H :    0.164141
  10 H :    0.251309
  11 H :    0.251879
  12 H :    0.071344
  13 H :    0.531957
  14 H :    0.430357
  15 H :    0.536439
  16 H :    0.022495
Sum of atomic charges:    0.0000000

LOEWDIN ATOMIC CHARGES
----------------------
   0 C :    0.200299
   1 C :    0.202708
   2 C :    0.194379
   3 C :    0.199117
   4 C :    0.185541
   5 C :   -0.137252
   6 C :   -0.549914
   7 O :    0.486195
   8 C :    0.560453
   9 H :   -0.175881
  10 H :   -0.155395
  11 H :   -0.155508
  12 H :   -0.186559
  13 H :   -0.166301
  14 H :   -0.163483
  15 H :   -0.164875
  16 H :   -0.173523

  Mayer bond orders larger than 0.100000
B(  0-C ,  1-C ) :   0.8998 B(  0-C ,  2-C ) :  -0.1526 B(  0-C ,  4-C ) :  -0.3304
B(  0-C ,  5-C ) :   0.4322 B(  0-C ,  6-C ) :   0.1350 B(  0-C , 12-H ) :   0.1168
B(  0-C , 16-H ) :   1.5053 B(  1-C ,  2-C ) :   1.2148 B(  1-C ,  3-C ) :   0.1607
B(  1-C , 15-H ) :   0.4945 B(  2-C ,  3-C ) :   1.1903 B(  2-C ,  4-C ) :  -0.1003
B(  2-C ,  6-C ) :   0.1127 B(  2-C , 14-H ) :   0.6934 B(  3-C ,  4-C ) :   1.2459
B(  3-C , 13-H ) :   0.5203 B(  4-C ,  5-C ) :   0.2913 B(  4-C ,  6-C ) :   0.1780
B(  4-C , 12-H ) :   1.2781 B(  4-C , 13-H ) :  -0.1474 B(  4-C , 14-H ) :   0.1122
B(  4-C , 16-H ) :   0.1199 B(  5-C ,  6-C ) :   0.3106 B(  5-C ,  7-O ) :   0.1344
B(  5-C , 12-H ) :  -0.1495 B(  5-C , 16-H ) :  -0.2144 B(  6-C ,  7-O ) :   0.7910
B(  6-C ,  8-C ) :   0.8999 B(  7-O , 12-H ) :   0.1640 B(  8-C ,  9-H ) :   0.9776
B(  8-C , 10-H ) :   0.9597 B(  8-C , 11-H ) :   0.9599 B( 12-H , 16-H ) :   0.1268

Dispersion correction           -0.029882444
FINAL SINGLE POINT ENERGY      -384.846271910338

DIPOLE MOMENT
-------------

Method             : SCF
Type of density    : Electron Density
Multiplicity       :   1
Irrep              :   0
Energy             :  -384.8163894663877613 Eh
Relativity type    :
Basis              : AO
                                X                 Y                 Z
Electronic contribution:      0.748717159       3.002101806      -0.001950213
Nuclear contribution   :      0.288396890      -4.357474412       0.001603683
                        -----------------------------------------
Total Dipole Moment    :      1.037114049      -1.355372606      -0.000346530
                        -----------------------------------------
Magnitude (a.u.)       :      1.706646001
Magnitude (Debye)      :      4.337949391

Rotational constants in cm-1:             0.123087             0.040626             0.030722
Rotational constants in MHz :          3690.044009          1217.936985           921.022210

                             ****ORCA TERMINATED NORMALLY****
TOTAL RUN TIME: 0 days 0 hours 3 minutes 32 seconds 173 msec
