                         Program Version 6.0.0  -   RELEASE  -
|  1> !PBE0 def2-SV(p) Opt Freq d3 TightSCF SlowConv RIJCOSX defgrid2
|  2>
|  3> %pal
|  4> nprocs 4
|  5> end
|  6>
|  7> %scf
|  8> MaxIter 1500
|  9> end
| 10>
| 11> %maxcore 3000
| 12>
| 13>
| 14>
| 15> * xyz 0 1
| 16> C    -0.3236570   -1.0810897    0.0000096
| 17> C     0.9844008   -0.7090097   -0.0000039
| 18> C     0.9843596    0.7090666   -0.0000068
| 19> C    -0.3237231    1.0810691    0.0000098
| 20> O    -1.1234326   -0.0000360    0.0000302
| 21> H    -0.7973332    2.0425276    0.0000196
| 22> H     1.8387583    1.3539302   -0.0000009
| 23> H     1.8388369   -1.3538253    0.0000059
| 24> H    -0.7972138   -2.0425762    0.0000191
| 25> *
| 26>
| 27>                          ****END OF INPUT****
 Total Charge           Charge          ....    0
 Multiplicity           Mult            ....    1
 Number of Electrons    NEL             ....   36
Dispersion correction           -0.005359914
FINAL SINGLE POINT ENERGY      -229.587233387479
Dispersion correction             ... done (  0.0 sec)
Dispersion correction           -0.005364345
FINAL SINGLE POINT ENERGY      -229.588392740496
Dispersion correction             ... done (  0.0 sec)
Dispersion correction           -0.005365899
FINAL SINGLE POINT ENERGY      -229.588439703005
Dispersion correction             ... done (  0.0 sec)
Dispersion correction           -0.005366893
FINAL SINGLE POINT ENERGY      -229.588468212472
Dispersion correction             ... done (  0.0 sec)
                    ***********************HURRAY********************

CARTESIAN COORDINATES (ANGSTROEM)
---------------------------------
  C     -0.320489   -1.085952    0.000009
  C      0.991342   -0.715848    0.000009
  C      0.991300    0.715904   -0.000001
  C     -0.320553    1.085930    0.000014
  O     -1.117301   -0.000034    0.000029
  H     -0.826722    2.049260    0.000020
  H      1.854970    1.379634   -0.000013
  H      1.855051   -1.379527    0.000005
  H     -0.826602   -2.049312    0.000012

 Multiplicity           Mult            ....    1
 Number of Electrons    NEL             ....   36
 Basis Dimension        Dim             ....   78

ORBITAL ENERGIES
----------------

  NO   OCC          E(Eh)            E(eV)
   0   2.0000     -19.281734      -524.6827
   1   2.0000     -10.279378      -279.7161
   2   2.0000     -10.279357      -279.7155
   3   2.0000     -10.232041      -278.4280
   4   2.0000     -10.231759      -278.4203
   5   2.0000      -1.141944       -31.0739
   6   2.0000      -0.817130       -22.2352
   7   2.0000      -0.765101       -20.8195
   8   2.0000      -0.617845       -16.8124
   9   2.0000      -0.579749       -15.7758
  10   2.0000      -0.560124       -15.2417
  11   2.0000      -0.475253       -12.9323
  12   2.0000      -0.460800       -12.5390
  13   2.0000      -0.422929       -11.5085
  14   2.0000      -0.414453       -11.2779
  15   2.0000      -0.386906       -10.5282
  16   2.0000      -0.295230        -8.0336
  17   2.0000      -0.243499        -6.6259
  18   0.0000       0.018328         0.4987
  19   0.0000       0.074148         2.0177
  20   0.0000       0.091528         2.4906
  21   0.0000       0.124173         3.3789
  22   0.0000       0.125507         3.4152

MULLIKEN ATOMIC CHARGES
-----------------------
   0 C :    0.031192
   1 C :   -0.153903
   2 C :   -0.153902
   3 C :    0.031191
   4 O :   -0.222293
   5 H :    0.121062
   6 H :    0.112796
   7 H :    0.112795
   8 H :    0.121062
Sum of atomic charges:   -0.0000000

LOEWDIN ATOMIC CHARGES
----------------------
   0 C :   -0.078744
   1 C :   -0.188073
   2 C :   -0.188073
   3 C :   -0.078744
   4 O :    0.001230
   5 H :    0.129865
   6 H :    0.136338
   7 H :    0.136338
   8 H :    0.129865

  Mayer bond orders larger than 0.100000
B(  0-C ,  1-C ) :   1.5746 B(  0-C ,  4-O ) :   1.1318 B(  0-C ,  8-H ) :   0.9710
B(  1-C ,  2-C ) :   1.2270 B(  1-C ,  7-H ) :   0.9752 B(  2-C ,  3-C ) :   1.5746
B(  2-C ,  6-H ) :   0.9752 B(  3-C ,  4-O ) :   1.1318 B(  3-C ,  5-H ) :   0.9710

Dispersion correction           -0.005366905
FINAL SINGLE POINT ENERGY      -229.588469495554

DIPOLE MOMENT
-------------

Method             : SCF
Type of density    : Electron Density
Multiplicity       :   1
Irrep              :   0
Energy             :  -229.5831025906575462 Eh
Relativity type    :
Basis              : AO
                                X                 Y                 Z
Electronic contribution:     -1.694501933      -0.000050115       0.000020358
Nuclear contribution   :      1.895786675       0.000056296      -0.000025910
                        -----------------------------------------
Total Dipole Moment    :      0.201284742       0.000006180      -0.000005552
                        -----------------------------------------
Magnitude (a.u.)       :      0.201284742
Magnitude (Debye)      :      0.511625156

VIBRATIONAL FREQUENCIES
-----------------------

Scaling factor for frequencies =  1.000000000  (already applied!)

     0:       0.00 cm**-1
     1:       0.00 cm**-1
     2:       0.00 cm**-1
     3:       0.00 cm**-1
     4:       0.00 cm**-1
     5:       0.00 cm**-1
     6:     620.33 cm**-1
     7:     640.16 cm**-1
     8:     749.09 cm**-1
     9:     762.45 cm**-1
    10:     862.37 cm**-1
    11:     891.27 cm**-1
    12:     892.61 cm**-1
    13:     902.50 cm**-1
    14:    1024.67 cm**-1
    15:    1071.68 cm**-1
    16:    1125.22 cm**-1
    17:    1184.22 cm**-1
    18:    1262.54 cm**-1
    19:    1294.95 cm**-1
    20:    1452.49 cm**-1
    21:    1549.43 cm**-1
    22:    1631.36 cm**-1
    23:    3265.31 cm**-1
    24:    3277.07 cm**-1
    25:    3298.13 cm**-1
    26:    3304.32 cm**-1

IR SPECTRUM
-----------

 Mode   freq       eps      Int      T**2         TX        TY        TZ
       cm**-1   L/(mol*cm) km/mol    a.u.
----------------------------------------------------------------------------
  6:    620.33   0.000000    0.00  0.000000  (-0.000001  0.000000 -0.000002)
  7:    640.16   0.004904   24.78  0.002391  (-0.000002 -0.000000 -0.048894)
  8:    749.09   0.000000    0.00  0.000000  ( 0.000001  0.000000 -0.000003)
  9:    762.45   0.017529   88.58  0.007174  (-0.000001  0.000001  0.084702)
 10:    862.37   0.000004    0.02  0.000001  ( 0.000000 -0.000001  0.001157)
 11:    891.27   0.000033    0.17  0.000011  ( 0.000128  0.003384 -0.000001)
 12:    892.61   0.002551   12.89  0.000892  (-0.029862  0.000014  0.000000)
 13:    902.50   0.000000    0.00  0.000000  (-0.000001  0.000000  0.000000)
 14:   1024.67   0.007623   38.52  0.002322  ( 0.048182  0.000002 -0.000000)
 15:   1071.68   0.001191    6.02  0.000347  ( 0.000003 -0.018624  0.000000)
 16:   1125.22   0.003333   16.84  0.000924  (-0.030404 -0.000002  0.000001)
 17:   1184.22   0.000639    3.23  0.000168  ( 0.012977  0.000001 -0.000000)
 18:   1262.54   0.002900   14.66  0.000717  (-0.000000  0.026774 -0.000000)
 19:   1294.95   0.000742    3.75  0.000179  (-0.000001  0.013368 -0.000000)
 20:   1452.49   0.000342    1.73  0.000073  ( 0.008567  0.000000  0.000000)
 21:   1549.43   0.004490   22.69  0.000904  (-0.030071 -0.000001  0.000000)
 22:   1631.36   0.000178    0.90  0.000034  ( 0.000001 -0.005838 -0.000000)
 23:   3265.31   0.000257    1.30  0.000025  ( 0.000000 -0.004961  0.000000)
 24:   3277.07   0.000002    0.01  0.000000  ( 0.000485 -0.000000 -0.000000)
 25:   3298.13   0.000018    0.09  0.000002  (-0.000000  0.001322  0.000000)
 26:   3304.32   0.000000    0.00  0.000000  ( 0.000096 -0.000000  0.000000)

--------------------------
THERMOCHEMISTRY AT 298.15K
--------------------------

Temperature         ...   298.15 K
Pressure            ...     1.00 atm
Total Mass          ...    68.07 AMU
Quasi RRHO          ...     True
Cut-Off Frequency   ...     1.00 cm^-1

Throughout the following assumptions are being made:
  (1) The electronic state is orbitally nondegenerate
  (2) There are no thermally accessible electronically excited states
  (3) Hindered rotations indicated by low frequency modes are not
      treated as such but are treated as vibrations and this may
      cause some error
  (4) All equations used are the standard statistical mechanics
      equations for an ideal gas
  (5) All vibrations are strictly harmonic

freq.     620.33  E(vib)   ...       0.09
freq.     640.16  E(vib)   ...       0.09
freq.     749.09  E(vib)   ...       0.06
freq.     762.45  E(vib)   ...       0.06
freq.     862.37  E(vib)   ...       0.04
freq.     891.27  E(vib)   ...       0.04
freq.     892.61  E(vib)   ...       0.03
freq.     902.50  E(vib)   ...       0.03
freq.    1024.67  E(vib)   ...       0.02
freq.    1071.68  E(vib)   ...       0.02
freq.    1125.22  E(vib)   ...       0.01
freq.    1184.22  E(vib)   ...       0.01
freq.    1262.54  E(vib)   ...       0.01
freq.    1294.95  E(vib)   ...       0.01
freq.    1452.49  E(vib)   ...       0.00
freq.    1549.43  E(vib)   ...       0.00
freq.    1631.36  E(vib)   ...       0.00
freq.    3265.31  E(vib)   ...       0.00
freq.    3277.07  E(vib)   ...       0.00
freq.    3298.13  E(vib)   ...       0.00
freq.    3304.32  E(vib)   ...       0.00

------------
INNER ENERGY
------------

The inner energy is: U= E(el) + E(ZPE) + E(vib) + E(rot) + E(trans)
    E(el)   - is the total energy from the electronic structure calculation
              = E(kin-el) + E(nuc-el) + E(el-el) + E(nuc-nuc)
    E(ZPE)  - the the zero temperature vibrational energy from the frequency calculation
    E(vib)  - the the finite temperature correction to E(ZPE) due to population
              of excited vibrational states
    E(rot)  - is the rotational thermal energy
    E(trans)- is the translational thermal energy

Summary of contributions to the inner energy U:
Electronic energy                ...   -229.58846950 Eh
Zero point energy                ...      0.07076484 Eh      44.41 kcal/mol
Thermal vibrational correction   ...      0.00083880 Eh       0.53 kcal/mol
Thermal rotational correction    ...      0.00141627 Eh       0.89 kcal/mol
Thermal translational correction ...      0.00141627 Eh       0.89 kcal/mol
-----------------------------------------------------------------------
Total thermal energy                   -229.51403331 Eh

Summary of corrections to the electronic energy:
(perhaps to be used in another calculation)
Total thermal correction                  0.00367134 Eh       2.30 kcal/mol
Non-thermal (ZPE) correction              0.07076484 Eh      44.41 kcal/mol
-----------------------------------------------------------------------
Total correction                          0.07443619 Eh      46.71 kcal/mol

--------
ENTHALPY
--------

The enthalpy is H = U + kB*T
                kB is Boltzmann's constant
Total thermal energy              ...   -229.51403331 Eh
Thermal Enthalpy correction       ...      0.00094421 Eh       0.59 kcal/mol
-----------------------------------------------------------------------
Total Enthalpy                    ...   -229.51308910 Eh

Note: Rotational entropy computed according to Herzberg
Infrared and Raman Spectra, Chapter V,1, Van Nostrand Reinhold, 1945
Point Group:  C2v, Symmetry Number:   2
Rotational constants in cm-1:     0.318415     0.310107     0.157103

Vibrational entropy computed according to the QRRHO of S. Grimme
Chem.Eur.J. 2012 18 9955 using a reference frequency of 100.0 cm-1

-------
ENTROPY
-------

The entropy contributions are T*S = T*(S(el)+S(vib)+S(rot)+S(trans))
     S(el)   - electronic entropy
     S(vib)  - vibrational entropy
     S(rot)  - rotational entropy
     S(trans)- translational entropy
The entropies will be listed as multiplied by the temperature to get
units of energy

Electronic entropy                ...      0.00000000 Eh      0.00 kcal/mol
Vibrational entropy               ...      0.00105985 Eh      0.67 kcal/mol
Rotational entropy                ...      0.01082313 Eh      6.79 kcal/mol
Translational entropy             ...      0.01832660 Eh     11.50 kcal/mol
-----------------------------------------------------------------------
Final entropy term                ...      0.03020958 Eh     18.96 kcal/mol

In case the symmetry of your molecule has not been determined correctly
or in case you have a reason to use a different symmetry number we print
out the resulting rotational entropy values for sn=1,12:

 non-linear molecules -----------------------------------
|  sn= 1 | S(rot)=       0.01147758 Eh      7.20 kcal/mol|
|  sn= 2 | S(rot)=       0.01082313 Eh      6.79 kcal/mol|
|  sn= 3 | S(rot)=       0.01044029 Eh      6.55 kcal/mol|
|  sn= 4 | S(rot)=       0.01016867 Eh      6.38 kcal/mol|
|  sn= 5 | S(rot)=       0.00995798 Eh      6.25 kcal/mol|
|  sn= 6 | S(rot)=       0.00978584 Eh      6.14 kcal/mol|
|  sn= 7 | S(rot)=       0.00964029 Eh      6.05 kcal/mol|
|  sn= 8 | S(rot)=       0.00951421 Eh      5.97 kcal/mol|
|  sn= 9 | S(rot)=       0.00940300 Eh      5.90 kcal/mol|
|  sn=10 | S(rot)=       0.00930352 Eh      5.84 kcal/mol|
|  sn=11 | S(rot)=       0.00921353 Eh      5.78 kcal/mol|
|  sn=12 | S(rot)=       0.00913138 Eh      5.73 kcal/mol|
 linear molecules ---------------------------------------
|  Dinfh | S(rot)=       0.00707335 Eh      4.44 kcal/mol|
|  Cinfv | S(rot)=       0.00772780 Eh      4.85 kcal/mol|
 --------------------------------------------------------

-------------------
GIBBS FREE ENERGY
-------------------

The Gibbs free energy is G = H - T*S

Total enthalpy                    ...   -229.51308910 Eh
Total entropy correction          ...     -0.03020958 Eh    -18.96 kcal/mol
-----------------------------------------------------------------------
Final Gibbs free energy         ...   -229.54329868 Eh

For completeness - the Gibbs free energy minus the electronic energy
G-E(el)                           ...      0.04517082 Eh     28.35 kcal/mol

                             ****ORCA TERMINATED NORMALLY****
TOTAL RUN TIME: 0 days 0 hours 4 minutes 31 seconds 30 msec
