                         Program Version 6.0.0  -   RELEASE  -
|  1> !r2SCAN aug-cc-pVTZ d3 TightSCF SlowConv RIJCOSX defgrid2
|  2>
|  3> %pal
|  4> nprocs 4
|  5> end
|  6>
|  7> %scf
|  8> MaxIter 1500
|  9> end
| 10>
| 11> %maxcore 3000
| 12>
| 13> !CPCM
| 14> %cpcm smd true
| 15> SMDsolvent "MeCN"
| 16> surfacetype gepol_ses
| 17> rsolv 2.19
| 18> end
| 19>
| 20> * xyz 0 1
| 21> C           0.43295274103395     -0.56555208137454     -0.12382569822175
| 22> C           1.51815041093286     -1.44256145132370      0.03465132264486
| 23> C           2.82291605458460     -0.98131423085206      0.16263470248186
| 24> C           3.07724805433695      0.38906543613859      0.10395417081958
| 25> C           2.01798434399991      1.27254312720111     -0.06183531891651
| 26> C           0.68778075786998      0.82920111453005     -0.15098740877372
| 27> C          -0.35699948321221      1.85751329332423     -0.25045884909377
| 28> C          -1.60080927987703      1.81370681826415      0.25464129384079
| 29> C          -2.59473145726124      2.92199907643296      0.15011601671836
| 30> H          -3.51573836514016      2.58612139620194     -0.36308088945608
| 31> H          -2.90680231015057      3.27360328807964      1.15160677275170
| 32> H          -2.18833105696491      3.78355768338862     -0.40632712366609
| 33> H          -1.92003588165608      0.92155321305987      0.80823791464133
| 34> H          -0.04094477526312      2.78794694041111     -0.74417993319491
| 35> H           2.21326017353196      2.34900579584862     -0.10386391754355
| 36> H           4.10071513363350      0.76784189558933      0.18022490580490
| 37> H           3.64525794250500     -1.69329903916305      0.28019138928457
| 38> H           1.32601592423891     -2.51911318521029      0.01809993008456
| 39> C          -0.91691070467914     -1.11038869710857     -0.32534444063154
| 40> C          -1.40376577306444     -2.22814293611418      0.23571081912874
| 41> C          -2.75893884419196     -2.79406285722768     -0.03123293907509
| 42> H          -3.32366890460505     -2.17343167413791     -0.74746352614549
| 43> H          -2.69094682094056     -3.81739069188698     -0.44702594213530
| 44> H          -3.35245768734527     -2.87433845188828      0.89900228994579
| 45> H          -0.77994682614443     -2.77248476472153      0.95866929401903
| 46> H          -1.56550936617145     -0.54211921746145     -1.00577693531227
| 47> *
| 48>
| 49>                          ****END OF INPUT****

CARTESIAN COORDINATES (ANGSTROEM)
---------------------------------
  C      0.432953   -0.565552   -0.123826
  C      1.518150   -1.442561    0.034651
  C      2.822916   -0.981314    0.162635
  C      3.077248    0.389065    0.103954
  C      2.017984    1.272543   -0.061835
  C      0.687781    0.829201   -0.150987
  C     -0.356999    1.857513   -0.250459
  C     -1.600809    1.813707    0.254641
  C     -2.594731    2.921999    0.150116
  H     -3.515738    2.586121   -0.363081
  H     -2.906802    3.273603    1.151607
  H     -2.188331    3.783558   -0.406327
  H     -1.920036    0.921553    0.808238
  H     -0.040945    2.787947   -0.744180
  H      2.213260    2.349006   -0.103864
  H      4.100715    0.767842    0.180225
  H      3.645258   -1.693299    0.280191
  H      1.326016   -2.519113    0.018100
  C     -0.916911   -1.110389   -0.325344
  C     -1.403766   -2.228143    0.235711
  C     -2.758939   -2.794063   -0.031233
  H     -3.323669   -2.173432   -0.747464
  H     -2.690947   -3.817391   -0.447026
  H     -3.352458   -2.874338    0.899002
  H     -0.779947   -2.772485    0.958669
  H     -1.565509   -0.542119   -1.005777

 Total Charge           Charge          ....    0
 Multiplicity           Mult            ....    1
 Number of Electrons    NEL             ....   86
 Basis Dimension        Dim             ....  874

ORBITAL ENERGIES
----------------

  NO   OCC          E(Eh)            E(eV)
   0   2.0000     -10.052469      -273.5416
   1   2.0000     -10.052027      -273.5296
   2   2.0000     -10.040634      -273.2195
   3   2.0000     -10.038412      -273.1591
   4   2.0000     -10.038201      -273.1533
   5   2.0000     -10.037810      -273.1427
   6   2.0000     -10.037638      -273.1380
   7   2.0000     -10.037277      -273.1282
   8   2.0000     -10.035428      -273.0779
   9   2.0000     -10.033200      -273.0173
  10   2.0000     -10.027963      -272.8748
  11   2.0000     -10.026940      -272.8469
  12   2.0000      -0.831486       -22.6259
  13   2.0000      -0.766867       -20.8675
  14   2.0000      -0.762850       -20.7582
  15   2.0000      -0.716752       -19.5038
  16   2.0000      -0.713336       -19.4109
  17   2.0000      -0.653072       -17.7710
  18   2.0000      -0.636279       -17.3140
  19   2.0000      -0.577226       -15.7071
  20   2.0000      -0.564457       -15.3596
  21   2.0000      -0.517950       -14.0941
  22   2.0000      -0.511322       -13.9138
  23   2.0000      -0.472132       -12.8474
  24   2.0000      -0.437471       -11.9042
  25   2.0000      -0.428997       -11.6736
  26   2.0000      -0.409410       -11.1406
  27   2.0000      -0.394203       -10.7268
  28   2.0000      -0.390989       -10.6393
  29   2.0000      -0.376206       -10.2371
  30   2.0000      -0.375231       -10.2105
  31   2.0000      -0.372122       -10.1259
  32   2.0000      -0.354556        -9.6479
  33   2.0000      -0.345634        -9.4052
  34   2.0000      -0.342566        -9.3217
  35   2.0000      -0.321230        -8.7411
  36   2.0000      -0.320022        -8.7082
  37   2.0000      -0.306111        -8.3297
  38   2.0000      -0.299660        -8.1542
  39   2.0000      -0.267185        -7.2705
  40   2.0000      -0.262472        -7.1422
  41   2.0000      -0.219216        -5.9652
  42   2.0000      -0.197358        -5.3704
  43   0.0000      -0.060819        -1.6550
  44   0.0000      -0.048164        -1.3106
  45   0.0000      -0.003256        -0.0886
  46   0.0000       0.010569         0.2876
  47   0.0000       0.017338         0.4718

MULLIKEN ATOMIC CHARGES
-----------------------
   0 C :    1.089708
   1 C :   -1.017359
   2 C :   -0.641300
   3 C :   -0.290786
   4 C :   -1.167482
   5 C :    1.572644
   6 C :   -0.259179
   7 C :   -0.024685
   8 C :   -0.801155
   9 H :    0.183717
  10 H :    0.165030
  11 H :    0.219481
  12 H :    0.201601
  13 H :    0.017700
  14 H :   -0.044768
  15 H :    0.582601
  16 H :    0.484141
  17 H :   -0.034161
  18 C :    0.309857
  19 C :   -0.519707
  20 C :   -0.761864
  21 H :    0.222842
  22 H :    0.178444
  23 H :    0.164364
  24 H :    0.135677
  25 H :    0.034639
Sum of atomic charges:   -0.0000000

LOEWDIN ATOMIC CHARGES
----------------------
   0 C :   -0.126113
   1 C :    0.198049
   2 C :    0.191563
   3 C :    0.188982
   4 C :    0.195684
   5 C :   -0.128778
   6 C :    0.201145
   7 C :    0.195187
   8 C :    0.559864
   9 H :   -0.162757
  10 H :   -0.163067
  11 H :   -0.172665
  12 H :   -0.183960
  13 H :   -0.175853
  14 H :   -0.167631
  15 H :   -0.171867
  16 H :   -0.171417
  17 H :   -0.175878
  18 C :    0.174388
  19 C :    0.198863
  20 C :    0.554611
  21 H :   -0.172559
  22 H :   -0.164841
  23 H :   -0.165130
  24 H :   -0.171859
  25 H :   -0.183962

  Mayer bond orders larger than 0.100000
B(  0-C ,  1-C ) :   0.4827 B(  0-C ,  2-C ) :   0.2128 B(  0-C ,  3-C ) :  -0.2797
B(  0-C ,  5-C ) :   0.9166 B(  0-C ,  6-C ) :   0.1487 B(  0-C , 17-H ) :  -0.1215
B(  0-C , 24-H ) :  -0.1621 B(  1-C ,  2-C ) :   1.0555 B(  1-C ,  5-C ) :  -0.3616
B(  1-C , 17-H ) :   1.4551 B(  1-C , 18-C ) :   0.2595 B(  1-C , 19-C ) :   0.1374
B(  2-C ,  3-C ) :   0.9947 B(  2-C ,  5-C ) :  -0.2276 B(  2-C , 16-H ) :   0.5422
B(  3-C ,  4-C ) :   0.9044 B(  3-C ,  5-C ) :   0.2870 B(  3-C , 15-H ) :   0.3949
B(  4-C ,  5-C ) :   0.1036 B(  4-C , 14-H ) :   1.4780 B(  5-C , 12-H ) :  -0.1849
B(  6-C ,  7-C ) :   1.1025 B(  6-C , 13-H ) :   1.1671 B(  7-C ,  8-C ) :   0.6562
B(  7-C , 12-H ) :   1.0951 B(  7-C , 13-H ) :  -0.1709 B(  8-C ,  9-H ) :   1.0195
B(  8-C , 10-H ) :   1.0570 B(  8-C , 11-H ) :   0.9448 B( 18-C , 19-C ) :   0.9687
B( 18-C , 20-C ) :  -0.1114 B( 18-C , 25-H ) :   1.1239 B( 19-C , 20-C ) :   0.7062
B( 19-C , 24-H ) :   1.1178 B( 19-C , 25-H ) :  -0.1370 B( 20-C , 21-H ) :   0.9637
B( 20-C , 22-H ) :   1.0072 B( 20-C , 23-H ) :   1.0608

Dispersion correction           -0.008862196
FINAL SINGLE POINT ENERGY      -465.579547593545

DIPOLE MOMENT
-------------

Method             : SCF
Type of density    : Electron Density
Multiplicity       :   1
Irrep              :   0
Energy             :  -465.5706853976313937 Eh
Relativity type    :
Basis              : AO
                                X                 Y                 Z
Electronic contribution:      9.797399258      -0.098198712      -0.317888549
Nuclear contribution   :    -10.320917319       0.104061334       0.410695045
                        -----------------------------------------
Total Dipole Moment    :     -0.523518061       0.005862622       0.092806496
                        -----------------------------------------
Magnitude (a.u.)       :      0.531712870
Magnitude (Debye)      :      1.351506710

Rotational constants in cm-1:             0.032124             0.026217             0.014718
Rotational constants in MHz :           963.065643           785.959094           441.247217

                             ****ORCA TERMINATED NORMALLY****
TOTAL RUN TIME: 0 days 0 hours 4 minutes 39 seconds 645 msec
