                         Program Version 6.0.0  -   RELEASE  -
|  1> !r2SCANh freq aug-cc-pVTZ d3 TightSCF SlowConv RIJCOSX defgrid2
|  2>
|  3> %pal
|  4> nprocs 12
|  5> end
|  6>
|  7> %scf
|  8> MaxIter 1500
|  9> end
| 10>
| 11> %maxcore 5000
| 12>
| 13> !CPCM
| 14> %cpcm smd true
| 15> SMDsolvent "MeCN"
| 16> surfacetype gepol_ses
| 17> rsolv 2.19
| 18> end
| 19>
| 20> * xyz 0 1
| 21> C           0.89653556273263     -1.41281913486420     -0.00039172723321
| 22> C           2.11033617478563     -0.73996819716767      0.00001693643788
| 23> C           2.16730914420276      0.65916528336819     -0.00008606047395
| 24> C           1.01625551912856      1.42927390466533     -0.00046712392427
| 25> C          -0.21702063874394      0.77508127402725     -0.00069936175325
| 26> C          -0.23751249167839     -0.62541344833721     -0.00077323618625
| 27> O          -1.52328184271778     -1.07583100494991     -0.00055232265757
| 28> C          -2.31617365618665      0.03875018791848     -0.00005527448525
| 29> C          -1.59521821346748      1.17828049558444     -0.00027200975628
| 30> H          -1.99042951576287      2.17972781021262      0.00091519169364
| 31> H          -3.37530058161036     -0.15166774048266      0.00119385774808
| 32> H           1.07179986310097      2.50954288160306     -0.00045624468278
| 33> H           3.13344052244043      1.14555547333007      0.00061176385511
| 34> H           3.03012922558142     -1.30865800012188      0.00116467551099
| 35> H           0.83818102819504     -2.49204348478590     -0.00006426409291
| 36> *
| 37>
| 38>                          ****END OF INPUT****

CARTESIAN COORDINATES (ANGSTROEM)
---------------------------------
  C      0.896536   -1.412819   -0.000392
  C      2.110336   -0.739968    0.000017
  C      2.167309    0.659165   -0.000086
  C      1.016256    1.429274   -0.000467
  C     -0.217021    0.775081   -0.000699
  C     -0.237512   -0.625413   -0.000773
  O     -1.523282   -1.075831   -0.000552
  C     -2.316174    0.038750   -0.000055
  C     -1.595218    1.178280   -0.000272
  H     -1.990430    2.179728    0.000915
  H     -3.375301   -0.151668    0.001194
  H      1.071800    2.509543   -0.000456
  H      3.133441    1.145555    0.000612
  H      3.030129   -1.308658    0.001165
  H      0.838181   -2.492043   -0.000064

 Total Charge           Charge          ....    0
 Multiplicity           Mult            ....    1
 Number of Electrons    NEL             ....   62
 Basis Dimension        Dim             ....  552

ORBITAL ENERGIES
----------------

  NO   OCC          E(Eh)            E(eV)
   0   2.0000     -19.187323      -522.1136
   1   2.0000     -10.214492      -277.9505
   2   2.0000     -10.213153      -277.9140
   3   2.0000     -10.168465      -276.6980
   4   2.0000     -10.163675      -276.5677
   5   2.0000     -10.162143      -276.5260
   6   2.0000     -10.160139      -276.4714
   7   2.0000     -10.157909      -276.4108
   8   2.0000     -10.156450      -276.3711
   9   2.0000      -1.120192       -30.4820
  10   2.0000      -0.863497       -23.4969
  11   2.0000      -0.803664       -21.8688
  12   2.0000      -0.751785       -20.4571
  13   2.0000      -0.730981       -19.8910
  14   2.0000      -0.630886       -17.1673
  15   2.0000      -0.597859       -16.2686
  16   2.0000      -0.581323       -15.8186
  17   2.0000      -0.514966       -14.0129
  18   2.0000      -0.487124       -13.2553
  19   2.0000      -0.471373       -12.8267
  20   2.0000      -0.457657       -12.4535
  21   2.0000      -0.430990       -11.7278
  22   2.0000      -0.415239       -11.2992
  23   2.0000      -0.396463       -10.7883
  24   2.0000      -0.379148       -10.3171
  25   2.0000      -0.354880        -9.6568
  26   2.0000      -0.353791        -9.6271
  27   2.0000      -0.328670        -8.9436
  28   2.0000      -0.296681        -8.0731
  29   2.0000      -0.242079        -6.5873
  30   2.0000      -0.223763        -6.0889
  31   0.0000      -0.040296        -1.0965
  32   0.0000      -0.009864        -0.2684
  33   0.0000       0.011609         0.3159
  34   0.0000       0.023854         0.6491
  35   0.0000       0.027468         0.7474

MULLIKEN ATOMIC CHARGES
-----------------------
   0 C :   -1.104903
   1 C :   -0.176087
   2 C :   -0.560238
   3 C :   -0.648023
   4 C :    1.174837
   5 C :    0.336489
   6 O :   -0.527549
   7 C :   -0.555641
   8 C :   -0.676449
   9 H :    0.404311
  10 H :    0.639184
  11 H :    0.065449
  12 H :    0.640764
  13 H :    0.366584
  14 H :    0.621271
Sum of atomic charges:    0.0000000

LOEWDIN ATOMIC CHARGES
----------------------
   0 C :    0.225100
   1 C :    0.181825
   2 C :    0.182683
   3 C :    0.220263
   4 C :   -0.168921
   5 C :   -0.403453
   6 O :    0.615908
   7 C :   -0.004981
   8 C :    0.225693
   9 H :   -0.177045
  10 H :   -0.181553
  11 H :   -0.172992
  12 H :   -0.185959
  13 H :   -0.184047
  14 H :   -0.172523

  Mayer bond orders larger than 0.100000
B(  0-C ,  1-C ) :   1.2462 B(  0-C ,  2-C ) :   0.4791 B(  0-C ,  4-C ) :   0.1236
B(  0-C ,  5-C ) :   1.1499 B(  0-C , 12-H ) :  -0.1076 B(  1-C ,  2-C ) :   1.0255
B(  1-C ,  3-C ) :  -0.4656 B(  1-C ,  5-C ) :  -0.7429 B(  1-C ,  7-C ) :   0.1070
B(  1-C , 12-H ) :   0.1665 B(  1-C , 13-H ) :   0.7915 B(  1-C , 14-H ) :   0.1855
B(  2-C ,  3-C ) :   0.9632 B(  2-C ,  5-C ) :   0.1254 B(  2-C ,  8-C ) :   0.2327
B(  2-C , 12-H ) :   0.2585 B(  2-C , 13-H ) :  -0.1456 B(  3-C ,  4-C ) :   0.7230
B(  3-C ,  5-C ) :  -0.8261 B(  3-C ,  8-C ) :   0.1106 B(  3-C ,  9-H ) :   0.1863
B(  3-C , 11-H ) :   1.4758 B(  3-C , 12-H ) :  -0.1211 B(  3-C , 14-H ) :   0.1390
B(  4-C ,  5-C ) :   1.2065 B(  4-C ,  6-O ) :  -0.1332 B(  4-C ,  7-C ) :  -0.3360
B(  4-C ,  8-C ) :   0.3885 B(  4-C , 11-H ) :  -0.1970 B(  4-C , 13-H ) :  -0.1632
B(  5-C ,  6-O ) :   0.5584 B(  5-C ,  8-C ) :   0.2533 B(  5-C , 11-H ) :   0.2302
B(  5-C , 13-H ) :   0.1746 B(  6-O ,  7-C ) :   1.1977 B(  7-C ,  8-C ) :   1.1470
B(  7-C , 10-H ) :   0.4497 B(  8-C ,  9-H ) :   0.8203 B(  8-C , 11-H ) :  -0.1030

Dispersion correction           -0.004783746
FINAL SINGLE POINT ENERGY      -383.594774767856

DIPOLE MOMENT
-------------

Method             : SCF
Type of density    : Electron Density
Multiplicity       :   1
Irrep              :   0
Energy             :  -383.5899910219035860 Eh
Relativity type    :
Basis              : AO
                                X                 Y                 Z
Electronic contribution:     -2.695389516      -1.395950168      -0.002510365
Nuclear contribution   :      2.504856821       1.734504149       0.004974195
                        -----------------------------------------
Total Dipole Moment    :     -0.190532695       0.338553982       0.002463830
                        -----------------------------------------
Magnitude (a.u.)       :      0.388493986
Magnitude (Debye)      :      0.987473235

VIBRATIONAL FREQUENCIES
-----------------------

Scaling factor for frequencies =  1.000000000  (already applied!)

     0:       0.00 cm**-1
     1:       0.00 cm**-1
     2:       0.00 cm**-1
     3:       0.00 cm**-1
     4:       0.00 cm**-1
     5:       0.00 cm**-1
     6:     216.18 cm**-1
     7:     252.39 cm**-1
     8:     409.06 cm**-1
     9:     430.01 cm**-1
    10:     550.61 cm**-1
    11:     589.61 cm**-1
    12:     604.53 cm**-1
    13:     625.25 cm**-1
    14:     752.67 cm**-1
    15:     764.35 cm**-1
    16:     783.65 cm**-1
    17:     792.51 cm**-1
    18:     875.25 cm**-1
    19:     878.87 cm**-1
    20:     887.53 cm**-1
    21:     918.42 cm**-1
    22:     958.39 cm**-1
    23:    1000.30 cm**-1
    24:    1034.59 cm**-1
    25:    1056.03 cm**-1
    26:    1126.19 cm**-1
    27:    1148.86 cm**-1
    28:    1165.76 cm**-1
    29:    1195.88 cm**-1
    30:    1283.65 cm**-1
    31:    1294.97 cm**-1
    32:    1369.38 cm**-1
    33:    1413.69 cm**-1
    34:    1485.48 cm**-1
    35:    1511.05 cm**-1
    36:    1581.19 cm**-1
    37:    1638.92 cm**-1
    38:    1666.72 cm**-1
    39:    3188.28 cm**-1
    40:    3199.58 cm**-1
    41:    3208.46 cm**-1
    42:    3218.08 cm**-1
    43:    3263.47 cm**-1
    44:    3290.07 cm**-1

IR SPECTRUM
-----------

 Mode   freq       eps      Int      T**2         TX        TY        TZ
       cm**-1   L/(mol*cm) km/mol    a.u.
----------------------------------------------------------------------------
  6:    216.18   0.002519   12.73  0.003636  (-0.000125 -0.000022  0.060298)
  7:    252.39   0.000061    0.31  0.000076  ( 0.000032 -0.000054  0.008692)
  8:    409.06   0.002294   11.59  0.001750  (-0.021059 -0.036149 -0.000008)
  9:    430.01   0.003485   17.61  0.002529  ( 0.000098 -0.000014 -0.050290)
 10:    550.61   0.000205    1.04  0.000116  ( 0.009407  0.005283  0.000080)
 11:    589.61   0.000047    0.24  0.000025  ( 0.000123  0.000020 -0.004971)
 12:    604.53   0.000001    0.01  0.000001  ( 0.000170  0.000111 -0.000778)
 13:    625.25   0.000569    2.87  0.000284  ( 0.016312 -0.004214 -0.000038)
 14:    752.67   0.000520    2.63  0.000216  ( 0.000092  0.000053  0.014681)
 15:    764.35   0.046739  236.20  0.019083  ( 0.000270 -0.000056 -0.138139)
 16:    783.65   0.002757   13.93  0.001098  ( 0.030287 -0.013412  0.000738)
 17:    792.51   0.003964   20.03  0.001561  (-0.000003  0.000017  0.039507)
 18:    875.25   0.000124    0.63  0.000044  ( 0.000549  0.000685 -0.006595)
 19:    878.87   0.003505   17.71  0.001245  ( 0.019773  0.029217 -0.000103)
 20:    887.53   0.000329    1.66  0.000116  ( 0.000319  0.000346  0.010739)
 21:    918.42   0.001138    5.75  0.000387  (-0.011092  0.016241 -0.000008)
 22:    958.39   0.001046    5.29  0.000341  ( 0.000155 -0.000131 -0.018457)
 23:   1000.30   0.000005    0.03  0.000002  (-0.000014  0.000241 -0.001229)
 24:   1034.59   0.003861   19.51  0.001165  (-0.033071  0.008425 -0.000156)
 25:   1056.03   0.007017   35.46  0.002074  (-0.005318 -0.045226 -0.000024)
 26:   1126.19   0.006090   30.78  0.001688  (-0.015519 -0.038036  0.000065)
 27:   1148.86   0.007184   36.30  0.001951  (-0.016500  0.040976 -0.000069)
 28:   1165.76   0.001936    9.79  0.000518  (-0.011198  0.019823 -0.000030)
 29:   1195.88   0.008689   43.91  0.002267  ( 0.043154 -0.020129 -0.000028)
 30:   1283.65   0.015695   79.32  0.003816  (-0.061741  0.001909 -0.000003)
 31:   1294.97   0.000400    2.02  0.000096  (-0.009778 -0.000835 -0.000034)
 32:   1369.38   0.002631   13.29  0.000599  (-0.015962 -0.018566  0.000005)
 33:   1413.69   0.000453    2.29  0.000100  ( 0.008999 -0.004356 -0.000000)
 34:   1485.48   0.014148   71.50  0.002972  (-0.049311 -0.023251  0.000013)
 35:   1511.05   0.001626    8.22  0.000336  ( 0.012170 -0.013702  0.000012)
 36:   1581.19   0.006620   33.46  0.001307  (-0.002177 -0.036081  0.000069)
 37:   1638.92   0.000129    0.65  0.000025  (-0.003275  0.003723  0.000017)
 38:   1666.72   0.000022    0.11  0.000004  (-0.002009  0.000340  0.000000)
 39:   3188.28   0.000498    2.52  0.000049  (-0.006805 -0.001573 -0.000001)
 40:   3199.58   0.002685   13.57  0.000262  (-0.009154  0.013345  0.000066)
 41:   3208.46   0.005420   27.39  0.000527  ( 0.015459  0.016975 -0.000022)
 42:   3218.08   0.001928    9.75  0.000187  (-0.011360  0.007613  0.000053)
 43:   3263.47   0.000616    3.11  0.000059  ( 0.007593  0.001116  0.000048)
 44:   3290.07   0.000009    0.04  0.000001  (-0.000455 -0.000790  0.000087)

--------------------------
THERMOCHEMISTRY AT 298.15K
--------------------------

Temperature         ...   298.15 K
Pressure            ...     1.00 atm
Total Mass          ...   118.13 AMU
Quasi RRHO          ...     True
Cut-Off Frequency   ...     1.00 cm^-1

Throughout the following assumptions are being made:
  (1) The electronic state is orbitally nondegenerate
  (2) There are no thermally accessible electronically excited states
  (3) Hindered rotations indicated by low frequency modes are not
      treated as such but are treated as vibrations and this may
      cause some error
  (4) All equations used are the standard statistical mechanics
      equations for an ideal gas
  (5) All vibrations are strictly harmonic

freq.     216.18  E(vib)   ...       0.34
freq.     252.39  E(vib)   ...       0.30
freq.     409.06  E(vib)   ...       0.19
freq.     430.01  E(vib)   ...       0.18
freq.     550.61  E(vib)   ...       0.12
freq.     589.61  E(vib)   ...       0.10
freq.     604.53  E(vib)   ...       0.10
freq.     625.25  E(vib)   ...       0.09
freq.     752.67  E(vib)   ...       0.06
freq.     764.35  E(vib)   ...       0.06
freq.     783.65  E(vib)   ...       0.05
freq.     792.51  E(vib)   ...       0.05
freq.     875.25  E(vib)   ...       0.04
freq.     878.87  E(vib)   ...       0.04
freq.     887.53  E(vib)   ...       0.04
freq.     918.42  E(vib)   ...       0.03
freq.     958.39  E(vib)   ...       0.03
freq.    1000.30  E(vib)   ...       0.02
freq.    1034.59  E(vib)   ...       0.02
freq.    1056.03  E(vib)   ...       0.02
freq.    1126.19  E(vib)   ...       0.01
freq.    1148.86  E(vib)   ...       0.01
freq.    1165.76  E(vib)   ...       0.01
freq.    1195.88  E(vib)   ...       0.01
freq.    1283.65  E(vib)   ...       0.01
freq.    1294.97  E(vib)   ...       0.01
freq.    1369.38  E(vib)   ...       0.01
freq.    1413.69  E(vib)   ...       0.00
freq.    1485.48  E(vib)   ...       0.00
freq.    1511.05  E(vib)   ...       0.00
freq.    1581.19  E(vib)   ...       0.00
freq.    1638.92  E(vib)   ...       0.00
freq.    1666.72  E(vib)   ...       0.00
freq.    3188.28  E(vib)   ...       0.00
freq.    3199.58  E(vib)   ...       0.00
freq.    3208.46  E(vib)   ...       0.00
freq.    3218.08  E(vib)   ...       0.00
freq.    3263.47  E(vib)   ...       0.00
freq.    3290.07  E(vib)   ...       0.00

------------
INNER ENERGY
------------

The inner energy is: U= E(el) + E(ZPE) + E(vib) + E(rot) + E(trans)
    E(el)   - is the total energy from the electronic structure calculation
              = E(kin-el) + E(nuc-el) + E(el-el) + E(nuc-nuc)
    E(ZPE)  - the the zero temperature vibrational energy from the frequency calculation
    E(vib)  - the the finite temperature correction to E(ZPE) due to population
              of excited vibrational states
    E(rot)  - is the rotational thermal energy
    E(trans)- is the translational thermal energy

Summary of contributions to the inner energy U:
Electronic energy                ...   -383.59477477 Eh
Zero point energy                ...      0.11762152 Eh      73.81 kcal/mol
Thermal vibrational correction   ...      0.00310992 Eh       1.95 kcal/mol
Thermal rotational correction    ...      0.00141627 Eh       0.89 kcal/mol
Thermal translational correction ...      0.00141627 Eh       0.89 kcal/mol
-----------------------------------------------------------------------
Total thermal energy                   -383.47121079 Eh

Summary of corrections to the electronic energy:
(perhaps to be used in another calculation)
Total thermal correction                  0.00594246 Eh       3.73 kcal/mol
Non-thermal (ZPE) correction              0.11762152 Eh      73.81 kcal/mol
-----------------------------------------------------------------------
Total correction                          0.12356398 Eh      77.54 kcal/mol

--------
ENTHALPY
--------

The enthalpy is H = U + kB*T
                kB is Boltzmann's constant
Total thermal energy              ...   -383.47121079 Eh
Thermal Enthalpy correction       ...      0.00094421 Eh       0.59 kcal/mol
-----------------------------------------------------------------------
Total Enthalpy                    ...   -383.47026658 Eh

Note: Only C1 symmetry has been detected, increase convergence thresholds
      if your molecule has a higher symmetry. Symmetry factor of 1.0 is
      used for the rotational entropy correction.

Note: Rotational entropy computed according to Herzberg
Infrared and Raman Spectra, Chapter V,1, Van Nostrand Reinhold, 1945
Point Group:  C1, Symmetry Number:   1
Rotational constants in cm-1:     0.131806     0.055851     0.039228

Vibrational entropy computed according to the QRRHO of S. Grimme
Chem.Eur.J. 2012 18 9955 using a reference frequency of 100.0 cm-1

-------
ENTROPY
-------

The entropy contributions are T*S = T*(S(el)+S(vib)+S(rot)+S(trans))
     S(el)   - electronic entropy
     S(vib)  - vibrational entropy
     S(rot)  - rotational entropy
     S(trans)- translational entropy
The entropies will be listed as multiplied by the temperature to get
units of energy

Electronic entropy                ...      0.00000000 Eh      0.00 kcal/mol
Vibrational entropy               ...      0.00454766 Eh      2.85 kcal/mol
Rotational entropy                ...      0.01335827 Eh      8.38 kcal/mol
Translational entropy             ...      0.01910727 Eh     11.99 kcal/mol
-----------------------------------------------------------------------
Final entropy term                ...      0.03701321 Eh     23.23 kcal/mol

In case the symmetry of your molecule has not been determined correctly
or in case you have a reason to use a different symmetry number we print
out the resulting rotational entropy values for sn=1,12:

 non-linear molecules -----------------------------------
|  sn= 1 | S(rot)=       0.01335827 Eh      8.38 kcal/mol|
|  sn= 2 | S(rot)=       0.01270382 Eh      7.97 kcal/mol|
|  sn= 3 | S(rot)=       0.01232098 Eh      7.73 kcal/mol|
|  sn= 4 | S(rot)=       0.01204936 Eh      7.56 kcal/mol|
|  sn= 5 | S(rot)=       0.01183867 Eh      7.43 kcal/mol|
|  sn= 6 | S(rot)=       0.01166653 Eh      7.32 kcal/mol|
|  sn= 7 | S(rot)=       0.01152098 Eh      7.23 kcal/mol|
|  sn= 8 | S(rot)=       0.01139490 Eh      7.15 kcal/mol|
|  sn= 9 | S(rot)=       0.01128370 Eh      7.08 kcal/mol|
|  sn=10 | S(rot)=       0.01118422 Eh      7.02 kcal/mol|
|  sn=11 | S(rot)=       0.01109423 Eh      6.96 kcal/mol|
|  sn=12 | S(rot)=       0.01101207 Eh      6.91 kcal/mol|
 linear molecules ---------------------------------------
|  Dinfh | S(rot)=       0.00838340 Eh      5.26 kcal/mol|
|  Cinfv | S(rot)=       0.00903785 Eh      5.67 kcal/mol|
 --------------------------------------------------------

-------------------
GIBBS FREE ENERGY
-------------------

                             ****ORCA TERMINATED NORMALLY****
TOTAL RUN TIME: 0 days 0 hours 27 minutes 12 seconds 696 msec
