                         Program Version 6.0.0  -   RELEASE  -
|  1> !PBE0 def2-SV(p) Opt Freq d3 TightSCF SlowConv RIJCOSX defgrid2
|  2>
|  3> %pal
|  4> nprocs 4
|  5> end
|  6>
|  7> %scf
|  8> MaxIter 1500
|  9> end
| 10>
| 11> %maxcore 3000
| 12>
| 13>
| 14>
| 15> * xyz 0 1
| 16> C    -1.0498581   -0.8955792   -0.0013623
| 17> C     0.2499717   -1.3739970   -0.0014963
| 18> C     0.5370476   -2.8467385    0.0018279
| 19> H    -0.3838316   -3.4234465   -0.0318300
| 20> H     1.0877071   -3.1218467    0.9008808
| 21> H     1.1497063   -3.1154469   -0.8578338
| 22> C     1.3005849   -0.4614772   -0.0021659
| 23> C     1.0648630    0.9033948   -0.0022630
| 24> C     2.1968147    1.8883616    0.0020337
| 25> H     3.1559244    1.3801471   -0.0578431
| 26> H     2.1089846    2.5715750   -0.8416556
| 27> H     2.1749703    2.4834196    0.9146162
| 28> C    -0.2506439    1.3570451   -0.0019227
| 29> C    -1.3148218    0.4705289   -0.0016448
| 30> C    -2.7338348    0.9582529    0.0015380
| 31> H    -3.2750419    0.5561619   -0.8539760
| 32> H    -2.7729904    2.0438600   -0.0391871
| 33> H    -3.2452430    0.6250544    0.9041018
| 34> H    -0.4409567    2.4217006   -0.0024469
| 35> H     2.3177882   -0.8288984   -0.0027839
| 36> H    -1.8768154   -1.5926098   -0.0013819
| 37> *
| 38>
| 39>                          ****END OF INPUT****
 Total Charge           Charge          ....    0
 Multiplicity           Mult            ....    1
 Number of Electrons    NEL             ....   66
Dispersion correction           -0.018061662
FINAL SINGLE POINT ENERGY      -349.512000376792
Dispersion correction             ... done (  0.1 sec)
Dispersion correction           -0.017946272
FINAL SINGLE POINT ENERGY      -349.514477979997
Dispersion correction             ... done (  0.1 sec)
Dispersion correction           -0.017929699
FINAL SINGLE POINT ENERGY      -349.514561472845
Dispersion correction             ... done (  0.1 sec)
Dispersion correction           -0.017922281
FINAL SINGLE POINT ENERGY      -349.514593861390
Dispersion correction             ... done (  0.1 sec)
                    ***********************HURRAY********************

CARTESIAN COORDINATES (ANGSTROEM)
---------------------------------
  C     -1.052928   -0.901950   -0.000792
  C      0.253833   -1.385680   -0.000802
  C      0.540283   -2.861386    0.002033
  H     -0.388839   -3.453255   -0.036041
  H      1.092918   -3.160106    0.911123
  H      1.161703   -3.150909   -0.864214
  C      1.307892   -0.460675   -0.001806
  C      1.073241    0.912947   -0.002147
  C      2.208176    1.898651    0.002098
  H      3.184500    1.390496   -0.058071
  H      2.136634    2.597058   -0.850770
  H      2.203315    2.510206    0.922624
  C     -0.254830    1.363497   -0.002256
  C     -1.327053    0.473465   -0.001033
  C     -2.748555    0.962381    0.002454
  H     -3.310640    0.566635   -0.862288
  H     -2.797821    2.062832   -0.037470
  H     -3.281889    0.633967    0.912822
  H     -0.453630    2.441250   -0.004653
  H      2.340864   -0.826834   -0.003782
  H     -1.886849   -1.613128   -0.001825

 Multiplicity           Mult            ....    1
 Number of Electrons    NEL             ....   66
 Basis Dimension        Dim             ....  150

ORBITAL ENERGIES
----------------

  NO   OCC          E(Eh)            E(eV)
   0   2.0000     -10.238153      -278.5943
   1   2.0000     -10.238117      -278.5933
   2   2.0000     -10.238110      -278.5931
   3   2.0000     -10.223025      -278.1827
   4   2.0000     -10.222986      -278.1816
   5   2.0000     -10.222972      -278.1812
   6   2.0000     -10.221868      -278.1512
   7   2.0000     -10.221858      -278.1509
   8   2.0000     -10.221840      -278.1504
   9   2.0000      -0.875336       -23.8191
  10   2.0000      -0.793692       -21.5975
  11   2.0000      -0.793686       -21.5973
  12   2.0000      -0.711738       -19.3674
  13   2.0000      -0.688483       -18.7346
  14   2.0000      -0.688434       -18.7333
  15   2.0000      -0.581891       -15.8341
  16   2.0000      -0.581880       -15.8338
  17   2.0000      -0.506811       -13.7910
  18   2.0000      -0.491038       -13.3618
  19   2.0000      -0.441092       -12.0027
  20   2.0000      -0.438881       -11.9426
  21   2.0000      -0.422900       -11.5077
  22   2.0000      -0.422888       -11.5074
  23   2.0000      -0.414111       -11.2685
  24   2.0000      -0.414085       -11.2678
  25   2.0000      -0.403249       -10.9730
  26   2.0000      -0.403217       -10.9721
  27   2.0000      -0.372629       -10.1397
  28   2.0000      -0.344440        -9.3727
  29   2.0000      -0.343287        -9.3413
  30   2.0000      -0.343265        -9.3407
  31   2.0000      -0.245225        -6.6729
  32   2.0000      -0.245178        -6.6716
  33   0.0000       0.004779         0.1300
  34   0.0000       0.004834         0.1315
  35   0.0000       0.075536         2.0554
  36   0.0000       0.093600         2.5470
  37   0.0000       0.093617         2.5474

MULLIKEN ATOMIC CHARGES
-----------------------
   0 C :   -0.194778
   1 C :    0.021224
   2 C :   -0.292944
   3 H :    0.126077
   4 H :    0.138575
   5 H :    0.137272
   6 C :   -0.194062
   7 C :    0.020555
   8 C :   -0.293499
   9 H :    0.125956
  10 H :    0.137131
  11 H :    0.139151
  12 C :   -0.193846
  13 C :    0.021595
  14 C :   -0.293527
  15 H :    0.137302
  16 H :    0.126032
  17 H :    0.138589
  18 H :    0.064381
  19 H :    0.064280
  20 H :    0.064537
Sum of atomic charges:   -0.0000000

LOEWDIN ATOMIC CHARGES
----------------------
   0 C :   -0.136364
   1 C :   -0.048169
   2 C :   -0.327387
   3 H :    0.125278
   4 H :    0.132998
   5 H :    0.132360
   6 C :   -0.136359
   7 C :   -0.048181
   8 C :   -0.327472
   9 H :    0.125272
  10 H :    0.132195
  11 H :    0.133214
  12 C :   -0.136388
  13 C :   -0.048120
  14 C :   -0.327414
  15 H :    0.132359
  16 H :    0.125268
  17 H :    0.133023
  18 H :    0.121311
  19 H :    0.121286
  20 H :    0.121289

  Mayer bond orders larger than 0.100000
B(  0-C ,  1-C ) :   1.4360 B(  0-C , 13-C ) :   1.3559 B(  0-C , 20-H ) :   0.9612
B(  1-C ,  2-C ) :   1.0697 B(  1-C ,  6-C ) :   1.3561 B(  2-C ,  3-H ) :   0.9507
B(  2-C ,  4-H ) :   0.9395 B(  2-C ,  5-H ) :   0.9406 B(  6-C ,  7-C ) :   1.4359
B(  6-C , 19-H ) :   0.9613 B(  7-C ,  8-C ) :   1.0700 B(  7-C , 12-C ) :   1.3560
B(  8-C ,  9-H ) :   0.9507 B(  8-C , 10-H ) :   0.9409 B(  8-C , 11-H ) :   0.9391
B( 12-C , 13-C ) :   1.4362 B( 12-C , 18-H ) :   0.9611 B( 13-C , 14-C ) :   1.0697
B( 14-C , 15-H ) :   0.9406 B( 14-C , 16-H ) :   0.9507 B( 14-C , 17-H ) :   0.9395

Dispersion correction           -0.017923692
FINAL SINGLE POINT ENERGY      -349.514594866473

DIPOLE MOMENT
-------------

Method             : SCF
Type of density    : Electron Density
Multiplicity       :   1
Irrep              :   0
Energy             :  -349.4966711746855594 Eh
Relativity type    :
Basis              : AO
                                X                 Y                 Z
Electronic contribution:     -0.000449447       0.002474173      -0.016855885
Nuclear contribution   :      0.000158820      -0.002916147       0.025698413
                        -----------------------------------------
Total Dipole Moment    :     -0.000290627      -0.000441974       0.008842528
                        -----------------------------------------
Magnitude (a.u.)       :      0.008858335
Magnitude (Debye)      :      0.022516099

VIBRATIONAL FREQUENCIES
-----------------------

Scaling factor for frequencies =  1.000000000  (already applied!)

     0:       0.00 cm**-1
     1:       0.00 cm**-1
     2:       0.00 cm**-1
     3:       0.00 cm**-1
     4:       0.00 cm**-1
     5:       0.00 cm**-1
     6:      24.58 cm**-1
     7:      28.07 cm**-1
     8:      29.55 cm**-1
     9:     176.70 cm**-1
    10:     226.22 cm**-1
    11:     226.54 cm**-1
    12:     272.29 cm**-1
    13:     272.38 cm**-1
    14:     462.60 cm**-1
    15:     522.87 cm**-1
    16:     522.90 cm**-1
    17:     534.49 cm**-1
    18:     534.79 cm**-1
    19:     591.02 cm**-1
    20:     720.03 cm**-1
    21:     867.30 cm**-1
    22:     911.46 cm**-1
    23:     911.73 cm**-1
    24:     960.33 cm**-1
    25:     960.36 cm**-1
    26:    1014.35 cm**-1
    27:    1038.76 cm**-1
    28:    1041.87 cm**-1
    29:    1042.00 cm**-1
    30:    1062.13 cm**-1
    31:    1062.35 cm**-1
    32:    1067.35 cm**-1
    33:    1196.70 cm**-1
    34:    1196.90 cm**-1
    35:    1302.68 cm**-1
    36:    1343.51 cm**-1
    37:    1400.74 cm**-1
    38:    1405.88 cm**-1
    39:    1406.02 cm**-1
    40:    1423.55 cm**-1
    41:    1459.25 cm**-1
    42:    1459.44 cm**-1
    43:    1468.79 cm**-1
    44:    1469.67 cm**-1
    45:    1469.96 cm**-1
    46:    1480.81 cm**-1
    47:    1524.59 cm**-1
    48:    1524.80 cm**-1
    49:    1694.80 cm**-1
    50:    1695.00 cm**-1
    51:    3033.21 cm**-1
    52:    3033.60 cm**-1
    53:    3034.13 cm**-1
    54:    3113.18 cm**-1
    55:    3113.59 cm**-1
    56:    3113.94 cm**-1
    57:    3140.57 cm**-1
    58:    3140.76 cm**-1
    59:    3140.94 cm**-1
    60:    3175.75 cm**-1
    61:    3176.05 cm**-1
    62:    3178.13 cm**-1

IR SPECTRUM
-----------

 Mode   freq       eps      Int      T**2         TX        TY        TZ
       cm**-1   L/(mol*cm) km/mol    a.u.
----------------------------------------------------------------------------
  6:     24.58   0.000031    0.16  0.000398  (-0.000976 -0.004375 -0.019435)
  7:     28.07   0.000003    0.02  0.000034  (-0.005022  0.002053  0.002035)
  8:     29.55   0.000170    0.86  0.001790  ( 0.000706 -0.002426  0.042235)
  9:    176.70   0.001021    5.16  0.001803  (-0.000059  0.000030  0.042460)
 10:    226.22   0.000000    0.00  0.000000  (-0.000536  0.000169 -0.000021)
 11:    226.54   0.000000    0.00  0.000000  (-0.000200 -0.000367 -0.000011)
 12:    272.29   0.000101    0.51  0.000116  (-0.003083  0.010317 -0.000009)
 13:    272.38   0.000103    0.52  0.000118  (-0.010436 -0.003043  0.000019)
 14:    462.60   0.000000    0.00  0.000000  ( 0.000010  0.000033 -0.000062)
 15:    522.87   0.000133    0.67  0.000079  ( 0.003564 -0.008162 -0.000012)
 16:    522.90   0.000132    0.67  0.000079  (-0.008135 -0.003544 -0.000016)
 17:    534.49   0.000002    0.01  0.000001  (-0.000073 -0.001149 -0.000001)
 18:    534.79   0.000003    0.01  0.000002  (-0.001246 -0.000110 -0.000024)
 19:    591.02   0.000000    0.00  0.000000  (-0.000006 -0.000005 -0.000248)
 20:    720.03   0.002338   11.82  0.001013  ( 0.000088  0.000052  0.031835)
 21:    867.30   0.002408   12.17  0.000867  (-0.000114 -0.000131  0.029437)
 22:    911.46   0.000001    0.01  0.000000  (-0.000141 -0.000649 -0.000070)
 23:    911.73   0.000001    0.01  0.000000  ( 0.000626  0.000058 -0.000042)
 24:    960.33   0.000485    2.45  0.000157  ( 0.001694  0.012434  0.000100)
 25:    960.36   0.000483    2.44  0.000157  (-0.012394  0.001799  0.000036)
 26:   1014.35   0.000001    0.01  0.000000  (-0.000034 -0.000015  0.000583)
 27:   1038.76   0.000001    0.00  0.000000  ( 0.000239 -0.000231  0.000216)
 28:   1041.87   0.000809    4.09  0.000242  ( 0.004052  0.015028  0.000052)
 29:   1042.00   0.000825    4.17  0.000247  ( 0.015174 -0.004115  0.000168)
 30:   1062.13   0.000027    0.13  0.000008  ( 0.001539  0.002248  0.000637)
 31:   1062.35   0.000014    0.07  0.000004  (-0.001822  0.000833 -0.000304)
 32:   1067.35   0.002522   12.75  0.000737  ( 0.000271  0.000388  0.027151)
 33:   1196.70   0.000019    0.10  0.000005  ( 0.001587 -0.001588 -0.000033)
 34:   1196.90   0.000020    0.10  0.000005  (-0.001543 -0.001643  0.000072)
 35:   1302.68   0.000000    0.00  0.000000  (-0.000033 -0.000016  0.000116)
 36:   1343.51   0.000002    0.01  0.000000  ( 0.000012 -0.000007 -0.000621)
 37:   1400.74   0.000000    0.00  0.000000  ( 0.000104  0.000056 -0.000013)
 38:   1405.88   0.000223    1.13  0.000049  ( 0.004290  0.005567  0.000138)
 39:   1406.02   0.000221    1.11  0.000049  (-0.005572  0.004230  0.000037)
 40:   1423.55   0.000008    0.04  0.000002  (-0.000001 -0.000066  0.001310)
 41:   1459.25   0.001020    5.16  0.000218  ( 0.011934 -0.008692  0.000500)
 42:   1459.44   0.001015    5.13  0.000217  (-0.008682 -0.011898  0.000255)
 43:   1468.79   0.005204   26.30  0.001106  (-0.000182  0.000297  0.033250)
 44:   1469.67   0.000099    0.50  0.000021  ( 0.000486 -0.000303  0.004539)
 45:   1469.96   0.000124    0.63  0.000026  ( 0.000147  0.000384 -0.005114)
 46:   1480.81   0.000026    0.13  0.000005  ( 0.000036  0.000007 -0.002319)
 47:   1524.59   0.004131   20.87  0.000845  ( 0.028897 -0.003228 -0.000008)
 48:   1524.80   0.004125   20.85  0.000844  ( 0.003183  0.028881  0.000037)
 49:   1694.80   0.005151   26.03  0.000948  (-0.009240 -0.029379 -0.000026)
 50:   1695.00   0.005142   25.98  0.000947  (-0.029344  0.009250 -0.000005)
 51:   3033.21   0.006949   35.12  0.000715  (-0.018162 -0.019620 -0.000369)
 52:   3033.60   0.007360   37.19  0.000757  (-0.019471  0.019442 -0.000086)
 53:   3034.13   0.000662    3.35  0.000068  (-0.007803 -0.002591  0.000728)
 54:   3113.18   0.001580    7.99  0.000158  ( 0.000853  0.000850 -0.012528)
 55:   3113.59   0.001776    8.98  0.000178  ( 0.000240 -0.000697 -0.013321)
 56:   3113.94   0.002139   10.81  0.000214  (-0.000730  0.000209 -0.014620)
 57:   3140.57   0.000270    1.37  0.000027  (-0.001644 -0.004913  0.000101)
 58:   3140.76   0.002751   13.90  0.000273  ( 0.016520 -0.000683  0.000019)
 59:   3140.94   0.002542   12.85  0.000253  (-0.000238 -0.015892 -0.000026)
 60:   3175.75   0.004038   20.41  0.000397  (-0.016539 -0.011102  0.000013)
 61:   3176.05   0.004009   20.26  0.000394  ( 0.011115 -0.016442 -0.000000)
 62:   3178.13   0.000029    0.14  0.000003  ( 0.000680  0.001528 -0.000079)

--------------------------
THERMOCHEMISTRY AT 298.15K
--------------------------

Temperature         ...   298.15 K
Pressure            ...     1.00 atm
Total Mass          ...   120.19 AMU
Quasi RRHO          ...     True
Cut-Off Frequency   ...     1.00 cm^-1

Throughout the following assumptions are being made:
  (1) The electronic state is orbitally nondegenerate
  (2) There are no thermally accessible electronically excited states
  (3) Hindered rotations indicated by low frequency modes are not
      treated as such but are treated as vibrations and this may
      cause some error
  (4) All equations used are the standard statistical mechanics
      equations for an ideal gas
  (5) All vibrations are strictly harmonic

freq.      24.58  E(vib)   ...       0.56
freq.      28.07  E(vib)   ...       0.55
freq.      29.55  E(vib)   ...       0.55
freq.     176.70  E(vib)   ...       0.38
freq.     226.22  E(vib)   ...       0.33
freq.     226.54  E(vib)   ...       0.33
freq.     272.29  E(vib)   ...       0.29
freq.     272.38  E(vib)   ...       0.29
freq.     462.60  E(vib)   ...       0.16
freq.     522.87  E(vib)   ...       0.13
freq.     522.90  E(vib)   ...       0.13
freq.     534.49  E(vib)   ...       0.13
freq.     534.79  E(vib)   ...       0.13
freq.     591.02  E(vib)   ...       0.10
freq.     720.03  E(vib)   ...       0.07
freq.     867.30  E(vib)   ...       0.04
freq.     911.46  E(vib)   ...       0.03
freq.     911.73  E(vib)   ...       0.03
freq.     960.33  E(vib)   ...       0.03
freq.     960.36  E(vib)   ...       0.03
freq.    1014.35  E(vib)   ...       0.02
freq.    1038.76  E(vib)   ...       0.02
freq.    1041.87  E(vib)   ...       0.02
freq.    1042.00  E(vib)   ...       0.02
freq.    1062.13  E(vib)   ...       0.02
freq.    1062.35  E(vib)   ...       0.02
freq.    1067.35  E(vib)   ...       0.02
freq.    1196.70  E(vib)   ...       0.01
freq.    1196.90  E(vib)   ...       0.01
freq.    1302.68  E(vib)   ...       0.01
freq.    1343.51  E(vib)   ...       0.01
freq.    1400.74  E(vib)   ...       0.00
freq.    1405.88  E(vib)   ...       0.00
freq.    1406.02  E(vib)   ...       0.00
freq.    1423.55  E(vib)   ...       0.00
freq.    1459.25  E(vib)   ...       0.00
freq.    1459.44  E(vib)   ...       0.00
freq.    1468.79  E(vib)   ...       0.00
freq.    1469.67  E(vib)   ...       0.00
freq.    1469.96  E(vib)   ...       0.00
freq.    1480.81  E(vib)   ...       0.00
freq.    1524.59  E(vib)   ...       0.00
freq.    1524.80  E(vib)   ...       0.00
freq.    1694.80  E(vib)   ...       0.00
freq.    1695.00  E(vib)   ...       0.00
freq.    3033.21  E(vib)   ...       0.00
freq.    3033.60  E(vib)   ...       0.00
freq.    3034.13  E(vib)   ...       0.00
freq.    3113.18  E(vib)   ...       0.00
freq.    3113.59  E(vib)   ...       0.00
freq.    3113.94  E(vib)   ...       0.00
freq.    3140.57  E(vib)   ...       0.00
freq.    3140.76  E(vib)   ...       0.00
freq.    3140.94  E(vib)   ...       0.00
freq.    3175.75  E(vib)   ...       0.00
freq.    3176.05  E(vib)   ...       0.00
freq.    3178.13  E(vib)   ...       0.00

------------
INNER ENERGY
------------

The inner energy is: U= E(el) + E(ZPE) + E(vib) + E(rot) + E(trans)
    E(el)   - is the total energy from the electronic structure calculation
              = E(kin-el) + E(nuc-el) + E(el-el) + E(nuc-nuc)
    E(ZPE)  - the the zero temperature vibrational energy from the frequency calculation
    E(vib)  - the the finite temperature correction to E(ZPE) due to population
              of excited vibrational states
    E(rot)  - is the rotational thermal energy
    E(trans)- is the translational thermal energy

Summary of contributions to the inner energy U:
Electronic energy                ...   -349.51459487 Eh
Zero point energy                ...      0.18316917 Eh     114.94 kcal/mol
Thermal vibrational correction   ...      0.00713441 Eh       4.48 kcal/mol
Thermal rotational correction    ...      0.00141627 Eh       0.89 kcal/mol
Thermal translational correction ...      0.00141627 Eh       0.89 kcal/mol
-----------------------------------------------------------------------
Total thermal energy                   -349.32145875 Eh

Summary of corrections to the electronic energy:
(perhaps to be used in another calculation)
Total thermal correction                  0.00996695 Eh       6.25 kcal/mol
Non-thermal (ZPE) correction              0.18316917 Eh     114.94 kcal/mol
-----------------------------------------------------------------------
Total correction                          0.19313612 Eh     121.19 kcal/mol

--------
ENTHALPY
--------

The enthalpy is H = U + kB*T
                kB is Boltzmann's constant
Total thermal energy              ...   -349.32145875 Eh
Thermal Enthalpy correction       ...      0.00094421 Eh       0.59 kcal/mol
-----------------------------------------------------------------------
Total Enthalpy                    ...   -349.32051454 Eh

Note: Only C1 symmetry has been detected, increase convergence thresholds
      if your molecule has a higher symmetry. Symmetry factor of 1.0 is
      used for the rotational entropy correction.

Note: Rotational entropy computed according to Herzberg
Infrared and Raman Spectra, Chapter V,1, Van Nostrand Reinhold, 1945
Point Group:  C1, Symmetry Number:   1
Rotational constants in cm-1:     0.058235     0.058222     0.029602

Vibrational entropy computed according to the QRRHO of S. Grimme
Chem.Eur.J. 2012 18 9955 using a reference frequency of 100.0 cm-1

-------
ENTROPY
-------

The entropy contributions are T*S = T*(S(el)+S(vib)+S(rot)+S(trans))
     S(el)   - electronic entropy
     S(vib)  - vibrational entropy
     S(rot)  - rotational entropy
     S(trans)- translational entropy
The entropies will be listed as multiplied by the temperature to get
units of energy

Electronic entropy                ...      0.00000000 Eh      0.00 kcal/mol
Vibrational entropy               ...      0.01291949 Eh      8.11 kcal/mol
Rotational entropy                ...      0.01385719 Eh      8.70 kcal/mol
Translational entropy             ...      0.01913176 Eh     12.01 kcal/mol
-----------------------------------------------------------------------
Final entropy term                ...      0.04590844 Eh     28.81 kcal/mol

In case the symmetry of your molecule has not been determined correctly
or in case you have a reason to use a different symmetry number we print
out the resulting rotational entropy values for sn=1,12:

 non-linear molecules -----------------------------------
|  sn= 1 | S(rot)=       0.01385719 Eh      8.70 kcal/mol|
|  sn= 2 | S(rot)=       0.01320273 Eh      8.28 kcal/mol|
|  sn= 3 | S(rot)=       0.01281990 Eh      8.04 kcal/mol|

                             ****ORCA TERMINATED NORMALLY****
TOTAL RUN TIME: 0 days 0 hours 8 minutes 24 seconds 928 msec
