                         Program Version 6.0.0  -   RELEASE  -
|  1> !r2SCANh freq aug-cc-pVTZ d3 TightSCF SlowConv RIJCOSX defgrid2
|  2>
|  3> %pal
|  4> nprocs 12
|  5> end
|  6>
|  7> %scf
|  8> MaxIter 1500
|  9> end
| 10>
| 11> %maxcore 5000
| 12>
| 13> !CPCM
| 14> %cpcm smd true
| 15> SMDsolvent "MeCN"
| 16> surfacetype gepol_ses
| 17> rsolv 2.19
| 18> end
| 19>
| 20> * xyz 1 2
| 21> C          -0.33468118743270      0.86636268722624      0.00228871425967
| 22> C          -1.60084045697347      0.30340435496452      0.00117132050930
| 23> C          -1.75625190040092     -1.11445531914572      0.00076473377972
| 24> C          -0.63714933216256     -1.92880661964415      0.00360473012036
| 25> C           0.62506001174026     -1.37513429601458      0.00520751085711
| 26> C           0.79273602223282      0.05252617202949      0.00325628962181
| 27> C           2.08409481013768      0.65244693539655      0.00289946264113
| 28> C           3.26864750175419     -0.01912763659098     -0.00250283750838
| 29> C           4.57897917258158      0.63995353915369     -0.00266675638611
| 30> H           5.15469877475683      0.31428134372273     -0.87459127355018
| 31> H           5.15952793192127      0.30337710330575      0.86186058272798
| 32> H           4.50655226378463      1.72414292816003      0.00415452446773
| 33> H           3.27759723633360     -1.10198770258020     -0.00797990045067
| 34> H           2.10983684911847      1.73621091215190      0.00548645212417
| 35> H           1.48791252104327     -2.02183602670607      0.00874642425332
| 36> H          -0.75893502386446     -3.00152787487722      0.00460686898825
| 37> H          -2.74172344541011     -1.55302133110443     -0.00278185272257
| 38> O          -2.62739997796033      1.13731546340671      0.00058892579917
| 39> C          -3.96742257176200      0.61869884682526     -0.00289206437652
| 40> H          -4.60910356664174      1.49191103591016     -0.00097715701148
| 41> H          -4.14620622974369      0.02397462846206      0.89036748534030
| 42> H          -4.14303752648259      0.03014206271444     -0.90078318961804
| 43> H          -0.23572927657001      1.94248279323380      0.00140690613394
| 44> *
| 45>
| 46>                          ****END OF INPUT****

CARTESIAN COORDINATES (ANGSTROEM)
---------------------------------
  C     -0.334681    0.866363    0.002289
  C     -1.600840    0.303404    0.001171
  C     -1.756252   -1.114455    0.000765
  C     -0.637149   -1.928807    0.003605
  C      0.625060   -1.375134    0.005208
  C      0.792736    0.052526    0.003256
  C      2.084095    0.652447    0.002899
  C      3.268648   -0.019128   -0.002503
  C      4.578979    0.639954   -0.002667
  H      5.154699    0.314281   -0.874591
  H      5.159528    0.303377    0.861861
  H      4.506552    1.724143    0.004155
  H      3.277597   -1.101988   -0.007980
  H      2.109837    1.736211    0.005486
  H      1.487913   -2.021836    0.008746
  H     -0.758935   -3.001528    0.004607
  H     -2.741723   -1.553021   -0.002782
  O     -2.627400    1.137315    0.000589
  C     -3.967423    0.618699   -0.002892
  H     -4.609104    1.491911   -0.000977
  H     -4.146206    0.023975    0.890367
  H     -4.143038    0.030142   -0.900783
  H     -0.235729    1.942483    0.001407

 Total Charge           Charge          ....    1
 Multiplicity           Mult            ....    2
 Number of Electrons    NEL             ....   79
 Basis Dimension        Dim             ....  782

ORBITAL ENERGIES
----------------
                 SPIN UP ORBITALS
  NO   OCC          E(Eh)            E(eV)
   0   1.0000     -19.194280      -522.3029
   1   1.0000     -10.268483      -279.4196
   2   1.0000     -10.221271      -278.1349
   3   1.0000     -10.214120      -277.9403
   4   1.0000     -10.213928      -277.9351
   5   1.0000     -10.211931      -277.8808
   6   1.0000     -10.211778      -277.8766
   7   1.0000     -10.196269      -277.4546
   8   1.0000     -10.189904      -277.2814
   9   1.0000     -10.182160      -277.0707
  10   1.0000     -10.160506      -276.4814
  11   1.0000      -1.118704       -30.4415
  12   1.0000      -0.905675       -24.6447
  13   1.0000      -0.845197       -22.9990
  14   1.0000      -0.796331       -21.6693
  15   1.0000      -0.789694       -21.4887
  16   1.0000      -0.726665       -19.7736
  17   1.0000      -0.709898       -19.3173
  18   1.0000      -0.637536       -17.3482
  19   1.0000      -0.631138       -17.1741
  20   1.0000      -0.575659       -15.6645
  21   1.0000      -0.550696       -14.9852
  22   1.0000      -0.516631       -14.0583
  23   1.0000      -0.507885       -13.8203
  24   1.0000      -0.489429       -13.3180
  25   1.0000      -0.487243       -13.2586
  26   1.0000      -0.454964       -12.3802
  27   1.0000      -0.440000       -11.9730
  28   1.0000      -0.429032       -11.6745
  29   1.0000      -0.417350       -11.3567
  30   1.0000      -0.413074       -11.2403
  31   1.0000      -0.405275       -11.0281
  32   1.0000      -0.391171       -10.6443
  33   1.0000      -0.376264       -10.2387
  34   1.0000      -0.364657        -9.9228
  35   1.0000      -0.362699        -9.8695
  36   1.0000      -0.343787        -9.3549
  37   1.0000      -0.328717        -8.9449
  38   1.0000      -0.263878        -7.1805
  39   1.0000      -0.261583        -7.1180
  40   0.0000      -0.098704        -2.6859
  41   0.0000      -0.047622        -1.2959
  42   0.0000       0.003061         0.0833
  43   0.0000       0.007647         0.2081
  44   0.0000       0.018579         0.5056

                 SPIN DOWN ORBITALS
  NO   OCC          E(Eh)            E(eV)
   0   1.0000     -19.191900      -522.2381
   1   1.0000     -10.268154      -279.4107
   2   1.0000     -10.220186      -278.1054
   3   1.0000     -10.212024      -277.8833
   4   1.0000     -10.209113      -277.8041
   5   1.0000     -10.207609      -277.7632
   6   1.0000     -10.205037      -277.6932
   7   1.0000     -10.195663      -277.4381
   8   1.0000     -10.192863      -277.3619
   9   1.0000     -10.182832      -277.0889
  10   1.0000     -10.160620      -276.4845
  11   1.0000      -1.115070       -30.3426
  12   1.0000      -0.898248       -24.4426
  13   1.0000      -0.836367       -22.7587
  14   1.0000      -0.794669       -21.6240
  15   1.0000      -0.779154       -21.2019
  16   1.0000      -0.718662       -19.5558
  17   1.0000      -0.706850       -19.2344
  18   1.0000      -0.634976       -17.2786
  19   1.0000      -0.625707       -17.0264
  20   1.0000      -0.571937       -15.5632
  21   1.0000      -0.548617       -14.9286
  22   1.0000      -0.514631       -14.0038
  23   1.0000      -0.504613       -13.7312
  24   1.0000      -0.484463       -13.1829
  25   1.0000      -0.482221       -13.1219
  26   1.0000      -0.454170       -12.3586
  27   1.0000      -0.439390       -11.9564
  28   1.0000      -0.416997       -11.3471
  29   1.0000      -0.415933       -11.3181
  30   1.0000      -0.403269       -10.9735
  31   1.0000      -0.400954       -10.9105
  32   1.0000      -0.389985       -10.6120
  33   1.0000      -0.375103       -10.2071
  34   1.0000      -0.361024        -9.8240
  35   1.0000      -0.351651        -9.5689
  36   1.0000      -0.341876        -9.3029
  37   1.0000      -0.312623        -8.5069
  38   1.0000      -0.250962        -6.8290
  39   0.0000      -0.196950        -5.3593
  40   0.0000      -0.067706        -1.8424
  41   0.0000      -0.037922        -1.0319
  42   0.0000       0.008300         0.2258
  43   0.0000       0.019233         0.5234

MULLIKEN ATOMIC CHARGES AND SPIN POPULATIONS
--------------------------------------------
   0 C :   -0.938362   -0.074080
   1 C :    0.872590    0.020023
   2 C :    0.020296    0.384517
   3 C :   -0.942147   -0.235044
   4 C :   -0.437044    0.381532
   5 C :    2.023097    0.088592
   6 C :   -0.166380    0.019591
   7 C :   -0.199854    0.238521
   8 C :   -0.774237   -0.030555
   9 H :    0.201283    0.027049
  10 H :    0.202869    0.026847
  11 H :    0.259807   -0.005225
  12 H :    0.137901    0.016378
  13 H :   -0.029682    0.008288
  14 H :    0.294316    0.036384
  15 H :    0.486064   -0.008484
  16 H :    0.306838    0.044949
  17 O :   -0.600858    0.068542
  18 C :   -0.660020   -0.005983
  19 H :    0.243101   -0.000453
  20 H :    0.284568    0.001534
  21 H :    0.284081    0.001569
  22 H :    0.131773   -0.004492
Sum of atomic charges         :    1.0000000

LOEWDIN ATOMIC CHARGES AND SPIN POPULATIONS
-------------------------------------------
   0 C :    0.256308   -0.003785
   1 C :   -0.345064    0.068981
   2 C :    0.293716    0.179275
   3 C :    0.271980    0.031065
   4 C :    0.292357    0.184231
   5 C :   -0.094117    0.084934
   6 C :    0.281579    0.075412
   7 C :    0.291541    0.146856
   8 C :    0.620508    0.048837
   9 H :   -0.148165    0.011049
  10 H :   -0.148310    0.011014
  11 H :   -0.163585    0.000999
  12 H :   -0.165642    0.024869
  13 H :   -0.160114    0.006365
  14 H :   -0.170424    0.039631
  15 H :   -0.154845   -0.014345
  16 H :   -0.169000    0.040992
  17 O :    0.637006    0.058561
  18 C :    0.421835    0.005713
  19 H :   -0.169040   -0.000363
  20 H :   -0.161074    0.001631
  21 H :   -0.160906    0.001626
  22 H :   -0.156543   -0.003551

  Mayer bond orders larger than 0.100000
B(  0-C ,  1-C ) :   0.5762 B(  0-C ,  2-C ) :  -0.1127 B(  0-C ,  4-C ) :  -0.3109
B(  0-C ,  6-C ) :  -0.3222 B(  0-C ,  7-C ) :   0.2000 B(  0-C , 17-O ) :   0.3290
B(  0-C , 22-H ) :   1.2230 B(  1-C ,  2-C ) :   0.9767 B(  1-C ,  4-C ) :  -0.2871
B(  1-C ,  6-C ) :   0.1462 B(  1-C ,  7-C ) :   0.1226 B(  1-C , 17-O ) :   0.2148
B(  1-C , 18-C ) :   0.1337 B(  1-C , 22-H ) :  -0.1087 B(  2-C ,  3-C ) :   0.9553
B(  2-C ,  5-C ) :  -0.1642 B(  2-C ,  6-C ) :   0.1011 B(  2-C , 16-H ) :   0.9560
B(  2-C , 17-O ) :  -0.2380 B(  2-C , 18-C ) :  -0.1849 B(  3-C ,  4-C ) :   0.9624
B(  3-C ,  5-C ) :  -0.1833 B(  3-C ,  7-C ) :  -0.1119 B(  3-C , 14-H ) :  -0.1464
B(  3-C , 15-H ) :   0.4465 B(  4-C ,  5-C ) :   0.3002 B(  4-C , 14-H ) :   0.9453
B(  5-C ,  7-C ) :  -0.1336 B(  5-C ,  8-C ) :   0.1263 B(  5-C , 12-H ) :  -0.2667
B(  5-C , 13-H ) :  -0.1112 B(  5-C , 17-O ) :   0.1761 B(  5-C , 22-H ) :  -0.1135
B(  6-C ,  7-C ) :   0.6785 B(  6-C , 12-H ) :   0.1102 B(  6-C , 13-H ) :   1.3728
B(  6-C , 22-H ) :  -0.1052 B(  7-C ,  8-C ) :   0.5589 B(  7-C , 12-H ) :   1.4447
B(  7-C , 13-H ) :  -0.1669 B(  8-C ,  9-H ) :   1.0257 B(  8-C , 10-H ) :   1.0239
B(  8-C , 11-H ) :   0.9542 B(  8-C , 12-H ) :  -0.1443 B( 16-H , 18-C ) :  -0.1566
B( 17-O , 18-C ) :   0.9548 B( 18-C , 19-H ) :   0.9780 B( 18-C , 20-H ) :   0.9132
B( 18-C , 21-H ) :   0.9137

Dispersion correction           -0.007311513
FINAL SINGLE POINT ENERGY      -463.178491887342

DIPOLE MOMENT
-------------

Method             : SCF
Type of density    : Electron Density
Multiplicity       :   2
Irrep              :   0
Energy             :  -463.1711803744273084 Eh
Relativity type    :
Basis              : AO
                                X                 Y                 Z
Electronic contribution:     -4.306444389      -0.642288356       0.015589189
Nuclear contribution   :      4.729566618      -0.272129815      -0.019909387
                        -----------------------------------------
Total Dipole Moment    :      0.423122229      -0.914418170      -0.004320198
                        -----------------------------------------
Magnitude (a.u.)       :      1.007577131
Magnitude (Debye)      :      2.561057537

VIBRATIONAL FREQUENCIES
-----------------------

Scaling factor for frequencies =  1.000000000  (already applied!)

     0:       0.00 cm**-1
     1:       0.00 cm**-1
     2:       0.00 cm**-1
     3:       0.00 cm**-1
     4:       0.00 cm**-1
     5:       0.00 cm**-1
     6:      14.12 cm**-1
     7:      82.17 cm**-1
     8:     107.83 cm**-1
     9:     130.49 cm**-1
    10:     168.40 cm**-1
    11:     171.19 cm**-1
    12:     224.08 cm**-1
    13:     256.94 cm**-1
    14:     261.62 cm**-1
    15:     338.39 cm**-1
    16:     368.87 cm**-1
    17:     409.01 cm**-1
    18:     441.49 cm**-1
    19:     556.72 cm**-1
    20:     595.69 cm**-1
    21:     606.34 cm**-1
    22:     625.55 cm**-1
    23:     761.65 cm**-1
    24:     785.22 cm**-1
    25:     820.63 cm**-1
    26:     887.53 cm**-1
    27:     890.67 cm**-1
    28:     905.41 cm**-1
    29:     953.77 cm**-1
    30:     964.56 cm**-1
    31:     996.22 cm**-1
    32:     997.95 cm**-1
    33:    1033.98 cm**-1
    34:    1040.55 cm**-1
    35:    1134.88 cm**-1
    36:    1149.40 cm**-1
    37:    1159.95 cm**-1
    38:    1177.75 cm**-1
    39:    1201.31 cm**-1
    40:    1234.82 cm**-1
    41:    1292.68 cm**-1
    42:    1324.33 cm**-1
    43:    1335.64 cm**-1
    44:    1355.20 cm**-1
    45:    1364.72 cm**-1
    46:    1422.38 cm**-1
    47:    1432.15 cm**-1
    48:    1444.43 cm**-1
    49:    1467.57 cm**-1
    50:    1476.68 cm**-1
    51:    1482.67 cm**-1
    52:    1491.66 cm**-1
    53:    1507.16 cm**-1
    54:    1529.83 cm**-1
    55:    1589.82 cm**-1
    56:    1626.29 cm**-1
    57:    3024.96 cm**-1
    58:    3066.24 cm**-1
    59:    3071.00 cm**-1
    60:    3151.88 cm**-1
    61:    3155.91 cm**-1
    62:    3173.70 cm**-1
    63:    3194.16 cm**-1
    64:    3196.57 cm**-1
    65:    3215.70 cm**-1
    66:    3225.64 cm**-1
    67:    3244.08 cm**-1
    68:    3248.40 cm**-1

IR SPECTRUM
-----------

 Mode   freq       eps      Int      T**2         TX        TY        TZ
       cm**-1   L/(mol*cm) km/mol    a.u.
----------------------------------------------------------------------------
  6:     14.12   0.000859    4.34  0.018981  (-0.003160 -0.000972 -0.137732)
  7:     82.17   0.000488    2.47  0.001853  ( 0.002599  0.000714  0.042965)
  8:    107.83   0.000040    0.20  0.000116  ( 0.004030  0.000404 -0.009962)
  9:    130.49   0.000168    0.85  0.000402  (-0.007964  0.018385 -0.000649)
 10:    168.40   0.000903    4.57  0.001674  ( 0.002012 -0.000124  0.040868)
 11:    171.19   0.000046    0.23  0.000084  ( 0.001500  0.000326 -0.009011)
 12:    224.08   0.000200    1.01  0.000279  (-0.001404  0.000571  0.016626)
 13:    256.94   0.005141   25.98  0.006244  ( 0.077342 -0.016189 -0.000102)
 14:    261.62   0.000015    0.08  0.000018  ( 0.003706 -0.001112  0.001687)
 15:    338.39   0.007367   37.23  0.006794  ( 0.082106  0.007275  0.000043)
 16:    368.87   0.001951    9.86  0.001650  (-0.038463 -0.013073 -0.000043)
 17:    409.01   0.000025    0.12  0.000019  (-0.000278  0.000027 -0.004327)
 18:    441.49   0.085992  434.57  0.060782  (-0.246074 -0.015158  0.000083)
 19:    556.72   0.056979  287.95  0.031939  (-0.178471  0.009314  0.000494)
 20:    595.69   0.000331    1.67  0.000173  (-0.002698 -0.000378 -0.012874)
 21:    606.34   0.011310   57.15  0.005821  ( 0.000933 -0.000214  0.076288)
 22:    625.55   0.002602   13.15  0.001298  (-0.036022  0.000419 -0.000704)
 23:    761.65   0.026132  132.06  0.010707  ( 0.099422  0.028668 -0.000385)
 24:    785.22   0.007891   39.88  0.003136  ( 0.001448  0.000482  0.055981)
 25:    820.63   0.001713    8.66  0.000651  (-0.001270 -0.000185  0.025488)
 26:    887.53   0.005216   26.36  0.001834  (-0.002886 -0.001280 -0.042708)
 27:    890.67   0.002714   13.72  0.000951  ( 0.011597  0.028534 -0.001551)
 28:    905.41   0.000159    0.81  0.000055  ( 0.002361  0.000620  0.007000)
 29:    953.77   0.120389  608.40  0.039390  (-0.198408 -0.004697  0.001479)
 30:    964.56   0.013628   68.87  0.004409  ( 0.001240 -0.000594  0.066388)
 31:    996.22   0.033044  166.99  0.010351  (-0.101640 -0.004501  0.000017)
 32:    997.95   0.000671    3.39  0.000210  (-0.003404 -0.000232  0.014082)
 33:   1033.98   0.000436    2.20  0.000131  (-0.001149  0.000284 -0.011405)
 34:   1040.55   0.042719  215.88  0.012812  (-0.111360 -0.020256 -0.000371)
 35:   1134.88   0.009417   47.59  0.002589  ( 0.039091  0.032577  0.000138)
 36:   1149.40   0.287862  1454.74  0.078155  ( 0.279326  0.011498 -0.000055)
 37:   1159.95   0.012487   63.11  0.003359  ( 0.057852 -0.003550  0.000162)
 38:   1177.75   0.000110    0.56  0.000029  ( 0.002142  0.000228 -0.004950)
 39:   1201.31   0.023036  116.42  0.005984  (-0.077341  0.001569  0.000110)
 40:   1234.82   0.099735  504.02  0.025205  (-0.157821  0.017248 -0.000033)
 41:   1292.68   0.479201  2421.68  0.115683  ( 0.340085  0.004972 -0.000204)
 42:   1324.33   0.046058  232.76  0.010853  ( 0.100877 -0.026019  0.000119)
 43:   1335.64   0.013201   66.71  0.003084  (-0.053634 -0.014408  0.000065)
 44:   1355.20   0.091767  463.76  0.021131  (-0.145263  0.005489  0.000091)
 45:   1364.72   0.005515   27.87  0.001261  (-0.035506  0.000529 -0.000452)
 46:   1422.38   0.022192  112.15  0.004869  (-0.067595 -0.017317  0.000027)
 47:   1432.15   0.004502   22.75  0.000981  ( 0.003396 -0.001442  0.031103)
 48:   1444.43   0.092961  469.78  0.020084  ( 0.139925 -0.022404 -0.001659)
 49:   1467.57   0.033891  171.27  0.007207  (-0.081465  0.023836  0.001366)
 50:   1476.68   0.000807    4.08  0.000171  ( 0.005834 -0.011685 -0.000200)
 51:   1482.67   0.005045   25.49  0.001062  (-0.013809  0.003242 -0.029336)
 52:   1491.66   0.013568   68.57  0.002839  ( 0.047996 -0.023071 -0.001625)
 53:   1507.16   0.005455   27.57  0.001130  (-0.032286 -0.009308 -0.000685)
 54:   1529.83   0.565024  2855.40  0.115257  (-0.338741 -0.022610  0.000384)
 55:   1589.82   0.046643  235.72  0.009156  ( 0.094547  0.014712 -0.000051)
 56:   1626.29   0.060423  305.36  0.011594  ( 0.091530  0.056716  0.000072)
 57:   3024.96   0.006055   30.60  0.000625  (-0.024604 -0.004390  0.000108)
 58:   3066.24   0.026254  132.68  0.002672  ( 0.050733  0.009910 -0.000018)
 59:   3071.00   0.000187    0.95  0.000019  (-0.000469 -0.000058 -0.004339)
 60:   3151.88   0.013527   68.36  0.001339  ( 0.030552  0.020145  0.000052)
 61:   3155.91   0.003438   17.37  0.000340  ( 0.000059  0.000122  0.018436)
 62:   3173.70   0.005611   28.35  0.000552  ( 0.021727  0.008923  0.000106)
 63:   3194.16   0.001542    7.79  0.000151  (-0.005179  0.011129 -0.000050)
 64:   3196.57   0.002882   14.56  0.000281  ( 0.011329 -0.012368 -0.000039)
 65:   3215.70   0.000416    2.10  0.000040  ( 0.006332  0.000563 -0.000080)
 66:   3225.64   0.000948    4.79  0.000092  (-0.007635 -0.005784 -0.000008)
 67:   3244.08   0.000863    4.36  0.000083  (-0.008134  0.004100  0.000129)
 68:   3248.40   0.000037    0.19  0.000004  ( 0.001551  0.001068 -0.000001)

--------------------------
THERMOCHEMISTRY AT 298.15K
--------------------------

Temperature         ...   298.15 K
Pressure            ...     1.00 atm
Total Mass          ...   148.21 AMU
Quasi RRHO          ...     True
Cut-Off Frequency   ...     1.00 cm^-1

Throughout the following assumptions are being made:
  (1) The electronic state is orbitally nondegenerate
      but the spin degeneracy is treated
  (2) There are no thermally accessible electronically excited states
  (3) Hindered rotations indicated by low frequency modes are not
      treated as such but are treated as vibrations and this may
      cause some error
  (4) All equations used are the standard statistical mechanics
      equations for an ideal gas
  (5) All vibrations are strictly harmonic

freq.      14.12  E(vib)   ...       0.57
freq.      82.17  E(vib)   ...       0.48
freq.     107.83  E(vib)   ...       0.45
freq.     130.49  E(vib)   ...       0.43
freq.     168.40  E(vib)   ...       0.38
freq.     171.19  E(vib)   ...       0.38
freq.     224.08  E(vib)   ...       0.33
freq.     256.94  E(vib)   ...       0.30
freq.     261.62  E(vib)   ...       0.30
freq.     338.39  E(vib)   ...       0.23
freq.     368.87  E(vib)   ...       0.21
freq.     409.01  E(vib)   ...       0.19
freq.     441.49  E(vib)   ...       0.17
freq.     556.72  E(vib)   ...       0.12
freq.     595.69  E(vib)   ...       0.10
freq.     606.34  E(vib)   ...       0.10
freq.     625.55  E(vib)   ...       0.09
freq.     761.65  E(vib)   ...       0.06
freq.     785.22  E(vib)   ...       0.05
freq.     820.63  E(vib)   ...       0.05
freq.     887.53  E(vib)   ...       0.04
freq.     890.67  E(vib)   ...       0.04
freq.     905.41  E(vib)   ...       0.03
freq.     953.77  E(vib)   ...       0.03
freq.     964.56  E(vib)   ...       0.03
freq.     996.22  E(vib)   ...       0.02
freq.     997.95  E(vib)   ...       0.02
freq.    1033.98  E(vib)   ...       0.02
freq.    1040.55  E(vib)   ...       0.02
freq.    1134.88  E(vib)   ...       0.01
freq.    1149.40  E(vib)   ...       0.01
freq.    1159.95  E(vib)   ...       0.01
freq.    1177.75  E(vib)   ...       0.01
freq.    1201.31  E(vib)   ...       0.01
freq.    1234.82  E(vib)   ...       0.01
freq.    1292.68  E(vib)   ...       0.01
freq.    1324.33  E(vib)   ...       0.01
freq.    1335.64  E(vib)   ...       0.01
freq.    1355.20  E(vib)   ...       0.01
freq.    1364.72  E(vib)   ...       0.01
freq.    1422.38  E(vib)   ...       0.00
freq.    1432.15  E(vib)   ...       0.00
freq.    1444.43  E(vib)   ...       0.00
freq.    1467.57  E(vib)   ...       0.00
freq.    1476.68  E(vib)   ...       0.00
freq.    1482.67  E(vib)   ...       0.00
freq.    1491.66  E(vib)   ...       0.00
freq.    1507.16  E(vib)   ...       0.00
freq.    1529.83  E(vib)   ...       0.00
freq.    1589.82  E(vib)   ...       0.00
freq.    1626.29  E(vib)   ...       0.00
freq.    3024.96  E(vib)   ...       0.00
freq.    3066.24  E(vib)   ...       0.00
freq.    3071.00  E(vib)   ...       0.00
freq.    3151.88  E(vib)   ...       0.00
freq.    3155.91  E(vib)   ...       0.00
freq.    3173.70  E(vib)   ...       0.00
freq.    3194.16  E(vib)   ...       0.00
freq.    3196.57  E(vib)   ...       0.00
freq.    3215.70  E(vib)   ...       0.00
freq.    3225.64  E(vib)   ...       0.00
freq.    3244.08  E(vib)   ...       0.00
freq.    3248.40  E(vib)   ...       0.00

------------
INNER ENERGY
------------

The inner energy is: U= E(el) + E(ZPE) + E(vib) + E(rot) + E(trans)
    E(el)   - is the total energy from the electronic structure calculation
              = E(kin-el) + E(nuc-el) + E(el-el) + E(nuc-nuc)
    E(ZPE)  - the the zero temperature vibrational energy from the frequency calculation
    E(vib)  - the the finite temperature correction to E(ZPE) due to population
              of excited vibrational states
    E(rot)  - is the rotational thermal energy
    E(trans)- is the translational thermal energy

Summary of contributions to the inner energy U:
Electronic energy                ...   -463.17849189 Eh
Zero point energy                ...      0.19265688 Eh     120.89 kcal/mol
Thermal vibrational correction   ...      0.00856006 Eh       5.37 kcal/mol
Thermal rotational correction    ...      0.00141627 Eh       0.89 kcal/mol
Thermal translational correction ...      0.00141627 Eh       0.89 kcal/mol
-----------------------------------------------------------------------
Total thermal energy                   -462.97444241 Eh

Summary of corrections to the electronic energy:
(perhaps to be used in another calculation)
Total thermal correction                  0.01139260 Eh       7.15 kcal/mol
Non-thermal (ZPE) correction              0.19265688 Eh     120.89 kcal/mol
-----------------------------------------------------------------------
Total correction                          0.20404948 Eh     128.04 kcal/mol

--------
ENTHALPY
--------

The enthalpy is H = U + kB*T
                kB is Boltzmann's constant
Total thermal energy              ...   -462.97444241 Eh
Thermal Enthalpy correction       ...      0.00094421 Eh       0.59 kcal/mol
-----------------------------------------------------------------------
Total Enthalpy                    ...   -462.97349820 Eh

Note: Only C1 symmetry has been detected, increase convergence thresholds
      if your molecule has a higher symmetry. Symmetry factor of 1.0 is
      used for the rotational entropy correction.

Note: Rotational entropy computed according to Herzberg
Infrared and Raman Spectra, Chapter V,1, Van Nostrand Reinhold, 1945
Point Group:  C1, Symmetry Number:   1
Rotational constants in cm-1:     0.105341     0.017252     0.014906

Vibrational entropy computed according to the QRRHO of S. Grimme
Chem.Eur.J. 2012 18 9955 using a reference frequency of 100.0 cm-1

-------
ENTROPY
-------

The entropy contributions are T*S = T*(S(el)+S(vib)+S(rot)+S(trans))
     S(el)   - electronic entropy
     S(vib)  - vibrational entropy
     S(rot)  - rotational entropy
     S(trans)- translational entropy
The entropies will be listed as multiplied by the temperature to get
units of energy

Electronic entropy                ...      0.00065446 Eh      0.41 kcal/mol
Vibrational entropy               ...      0.01531822 Eh      9.61 kcal/mol
Rotational entropy                ...      0.01447548 Eh      9.08 kcal/mol
Translational entropy             ...      0.01942844 Eh     12.19 kcal/mol
-----------------------------------------------------------------------
Final entropy term                ...      0.04987660 Eh     31.30 kcal/mol

In case the symmetry of your molecule has not been determined correctly

                             ****ORCA TERMINATED NORMALLY****
TOTAL RUN TIME: 0 days 1 hours 48 minutes 49 seconds 45 msec
