                         Program Version 6.0.0  -   RELEASE  -
|  1> !PBE0 def2-SV(p) Opt Freq d3 TightSCF SlowConv RIJCOSX defgrid2
|  2>
|  3> %pal
|  4> nprocs 4
|  5> end
|  6>
|  7> %scf
|  8> MaxIter 1500
|  9> end
| 10>
| 11> %maxcore 3000
| 12>
| 13>
| 14>
| 15> * xyz 1 2
| 16> C     1.1063517   -1.2850242    0.0114603
| 17> C     0.3880564    0.0307230    0.0099642
| 18> C     1.1022009    1.2147981   -0.0127088
| 19> C     2.5668702    1.2877764   -0.0942397
| 20> C     3.2410622   -0.0482832   -0.3828695
| 21> C     2.5674041   -1.1386930    0.4393757
| 22> H     3.0778069   -2.0912354    0.3008427
| 23> H     2.6174512   -0.8815870    1.4986703
| 24> H     4.3023611    0.0101960   -0.1443976
| 25> H     3.1505557   -0.2831938   -1.4451948
| 26> H     2.8509139    2.0473271   -0.8310988
| 27> H     2.9286974    1.6876467    0.8653661
| 28> H     0.5835313    2.1605461    0.0202661
| 29> N    -0.9510145    0.0231182    0.0060256
| 30> C    -1.7905371    1.2044033    0.0696855
| 31> C    -3.2031495    0.6598779    0.2787171
| 32> C    -3.1488108   -0.6825557   -0.4455148
| 33> C    -1.7455621   -1.1795721   -0.1044473
| 34> H    -1.3370376   -1.8525777   -0.8613012
| 35> H    -1.7484126   -1.7053615    0.8593828
| 36> H    -3.9210634   -1.3718692   -0.1158831
| 37> H    -3.2456476   -0.5378885   -1.5218676
| 38> H    -3.9615535    1.3255341   -0.1239607
| 39> H    -3.3988764    0.5099616    1.3406348
| 40> H    -1.4745847    1.8639400    0.8804986
| 41> H    -1.7253569    1.7514670   -0.8781643
| 42> H     0.6025669   -1.9867159    0.6790752
| 43> H     1.0692578   -1.7072461   -0.9989531
| 44> *
| 45>
| 46>                          ****END OF INPUT****
 Total Charge           Charge          ....    1
 Multiplicity           Mult            ....    2
 Number of Electrons    NEL             ....   83
Dispersion correction           -0.025612586
FINAL SINGLE POINT ENERGY      -444.944889808370
Dispersion correction             ... done (  0.1 sec)
Dispersion correction           -0.025474543
FINAL SINGLE POINT ENERGY      -444.947869549175
Dispersion correction             ... done (  0.0 sec)
Dispersion correction           -0.025444859
FINAL SINGLE POINT ENERGY      -444.948251362313
Dispersion correction             ... done (  0.0 sec)
FINAL SINGLE POINT ENERGY      -444.948353892397
FINAL SINGLE POINT ENERGY      -444.948362273503
Dispersion correction             ... done (  0.1 sec)
Dispersion correction           -0.025449354
FINAL SINGLE POINT ENERGY      -444.948365338790
Dispersion correction             ... done (  0.1 sec)
Dispersion correction           -0.025450451
FINAL SINGLE POINT ENERGY      -444.948366644221
Dispersion correction             ... done (  0.1 sec)
                    ***********************HURRAY********************

CARTESIAN COORDINATES (ANGSTROEM)
---------------------------------
  C      1.111260   -1.294245   -0.002651
  C      0.381988    0.020082   -0.000736
  C      1.097875    1.231858   -0.018401
  C      2.575169    1.299441   -0.054230
  C      3.252761   -0.030065   -0.366526
  C      2.578519   -1.159586    0.397667
  H      3.086730   -2.118978    0.212333
  H      2.649196   -0.972019    1.484910
  H      4.323009    0.029949   -0.113931
  H      3.197295   -0.228476   -1.452593
  H      2.880174    2.098146   -0.756652
  H      2.904369    1.680656    0.938762
  H      0.548946    2.177780    0.005597
  N     -0.948819    0.021470   -0.007507
  C     -1.801246    1.221712    0.024140
  C     -3.202020    0.672996    0.264881
  C     -3.160200   -0.691689   -0.414741
  C     -1.765032   -1.197766   -0.075052
  H     -1.344485   -1.896265   -0.814819
  H     -1.736827   -1.693223    0.914338
  H     -3.943793   -1.380081   -0.065070
  H     -3.269512   -0.587212   -1.507959
  H     -3.978361    1.340289   -0.137900
  H     -3.384514    0.562561    1.347534
  H     -1.458161    1.912162    0.809651
  H     -1.720378    1.733811   -0.952000
  H      0.593117   -2.005240    0.662929
  H      1.036419   -1.722556   -1.022611

 Multiplicity           Mult            ....    2
 Number of Electrons    NEL             ....   83
 Basis Dimension        Dim             ....  188

ORBITAL ENERGIES
----------------
                 SPIN UP ORBITALS
  NO   OCC          E(Eh)            E(eV)
   0   1.0000     -14.648148      -398.5964
   1   1.0000     -10.475194      -285.0445
   2   1.0000     -10.438692      -284.0513
   3   1.0000     -10.432143      -283.8730
   4   1.0000     -10.431812      -283.8640
   5   1.0000     -10.396827      -282.9121
   6   1.0000     -10.386228      -282.6236
   7   1.0000     -10.381154      -282.4856
   8   1.0000     -10.380982      -282.4809
   9   1.0000     -10.369009      -282.1551
  10   1.0000     -10.364656      -282.0366
  11   1.0000      -1.193362       -32.4730
  12   1.0000      -1.036480       -28.2041
  13   1.0000      -0.981284       -26.7021
  14   1.0000      -0.946647       -25.7596
  15   1.0000      -0.918255       -24.9870
  16   1.0000      -0.904000       -24.5991
  17   1.0000      -0.822452       -22.3801
  18   1.0000      -0.807500       -21.9732
  19   1.0000      -0.759032       -20.6543
  20   1.0000      -0.752672       -20.4812
  21   1.0000      -0.728689       -19.8286
  22   1.0000      -0.697785       -18.9877
  23   1.0000      -0.688034       -18.7223
  24   1.0000      -0.642787       -17.4911
  25   1.0000      -0.630798       -17.1649
  26   1.0000      -0.612506       -16.6671
  27   1.0000      -0.606318       -16.4988
  28   1.0000      -0.602710       -16.4006
  29   1.0000      -0.590680       -16.0732
  30   1.0000      -0.579720       -15.7750
  31   1.0000      -0.568468       -15.4688
  32   1.0000      -0.566232       -15.4080
  33   1.0000      -0.552715       -15.0401
  34   1.0000      -0.521890       -14.2014
  35   1.0000      -0.521195       -14.1824
  36   1.0000      -0.498447       -13.5634
  37   1.0000      -0.495591       -13.4857
  38   1.0000      -0.489633       -13.3236
  39   1.0000      -0.485736       -13.2176
  40   1.0000      -0.480920       -13.0865
  41   1.0000      -0.410976       -11.1832
  42   0.0000      -0.162550        -4.4232
  43   0.0000      -0.087860        -2.3908
  44   0.0000      -0.065358        -1.7785
  45   0.0000      -0.057499        -1.5646
  46   0.0000      -0.054991        -1.4964

                 SPIN DOWN ORBITALS
  NO   OCC          E(Eh)            E(eV)
   0   1.0000     -14.638913      -398.3451
   1   1.0000     -10.476827      -285.0889
   2   1.0000     -10.432630      -283.8863
   3   1.0000     -10.432206      -283.8748
   4   1.0000     -10.428475      -283.7732
   5   1.0000     -10.396733      -282.9095
   6   1.0000     -10.386704      -282.6366
   7   1.0000     -10.381121      -282.4847
   8   1.0000     -10.380933      -282.4796
   9   1.0000     -10.369015      -282.1553
  10   1.0000     -10.364590      -282.0348
  11   1.0000      -1.179670       -32.1005
  12   1.0000      -1.029656       -28.0184
  13   1.0000      -0.978691       -26.6315
  14   1.0000      -0.941455       -25.6183
  15   1.0000      -0.914620       -24.8881
  16   1.0000      -0.897285       -24.4164
  17   1.0000      -0.820371       -22.3234
  18   1.0000      -0.802335       -21.8326
  19   1.0000      -0.755435       -20.5564
  20   1.0000      -0.749376       -20.3915
  21   1.0000      -0.724466       -19.7137
  22   1.0000      -0.685019       -18.6403
  23   1.0000      -0.683502       -18.5990
  24   1.0000      -0.636148       -17.3105
  25   1.0000      -0.627120       -17.0648
  26   1.0000      -0.608514       -16.5585
  27   1.0000      -0.603806       -16.4304
  28   1.0000      -0.597564       -16.2605
  29   1.0000      -0.581428       -15.8215
  30   1.0000      -0.576419       -15.6852
  31   1.0000      -0.565984       -15.4012
  32   1.0000      -0.563360       -15.3298
  33   1.0000      -0.544350       -14.8125
  34   1.0000      -0.521051       -14.1785
  35   1.0000      -0.520635       -14.1672
  36   1.0000      -0.495621       -13.4865
  37   1.0000      -0.489885       -13.3304
  38   1.0000      -0.483416       -13.1544
  39   1.0000      -0.480825       -13.0839
  40   1.0000      -0.474103       -12.9010
  41   0.0000      -0.289606        -7.8806
  42   0.0000      -0.127408        -3.4669
  43   0.0000      -0.086378        -2.3505
  44   0.0000      -0.063605        -1.7308
  45   0.0000      -0.056267        -1.5311

MULLIKEN ATOMIC CHARGES AND SPIN POPULATIONS
--------------------------------------------
   0 C :   -0.232504    0.004171
   1 C :    0.088739   -0.097875
   2 C :   -0.153288    0.697621
   3 C :   -0.198018   -0.063899
   4 C :   -0.231026    0.005791
   5 C :   -0.218207    0.000593
   6 H :    0.162758    0.000542
   7 H :    0.148651   -0.000333
   8 H :    0.166131   -0.000572
   9 H :    0.147311    0.000868
  10 H :    0.182053    0.025579
  11 H :    0.184781    0.051664
  12 H :    0.166558   -0.034268
  13 N :   -0.288736    0.375025
  14 C :   -0.107656   -0.028561
  15 C :   -0.248953    0.002003
  16 C :   -0.248506    0.003104
  17 C :   -0.111052   -0.025633
  18 H :    0.187475    0.014555
  19 H :    0.187723    0.030958
  20 H :    0.181484   -0.000340
  21 H :    0.163523   -0.000136
  22 H :    0.181513   -0.000233
  23 H :    0.163120   -0.000437
  24 H :    0.185216    0.016093
  25 H :    0.182044    0.025100
  26 H :    0.177832   -0.001648
  27 H :    0.181036    0.000267
Sum of atomic charges         :    1.0000000

LOEWDIN ATOMIC CHARGES AND SPIN POPULATIONS
-------------------------------------------
   0 C :   -0.227805    0.003655
   1 C :    0.040973   -0.025794
   2 C :   -0.032168    0.571334
   3 C :   -0.228074   -0.003147
   4 C :   -0.228078    0.002914
   5 C :   -0.223292    0.000395
   6 H :    0.147389    0.000590
   7 H :    0.134557   -0.000182
   8 H :    0.147443   -0.000527
   9 H :    0.134572    0.000615
  10 H :    0.163360    0.023269
  11 H :    0.169780    0.045547
  12 H :    0.154251   -0.016640
  13 N :    0.082224    0.345680
  14 C :   -0.143586   -0.010655
  15 C :   -0.229339    0.001428
  16 C :   -0.229398    0.002140
  17 C :   -0.140876   -0.006723
  18 H :    0.149832    0.011866
  19 H :    0.152485    0.024559
  20 H :    0.154215   -0.000271
  21 H :    0.143420   -0.000124
  22 H :    0.154154   -0.000159
  23 H :    0.143324   -0.000332
  24 H :    0.148277    0.012119
  25 H :    0.150076    0.019322
  26 H :    0.152601   -0.001165
  27 H :    0.159683    0.000288

  Mayer bond orders larger than 0.100000
B(  0-C ,  1-C ) :   1.0588 B(  0-C ,  5-C ) :   1.0814 B(  0-C , 26-H ) :   0.8939
B(  0-C , 27-H ) :   0.8816 B(  1-C ,  2-C ) :   1.3933 B(  1-C , 13-N ) :   1.3988
B(  2-C ,  3-C ) :   1.0892 B(  2-C , 12-H ) :   0.9142 B(  3-C ,  4-C ) :   1.0958
B(  3-C , 10-H ) :   0.8956 B(  3-C , 11-H ) :   0.8688 B(  4-C ,  5-C ) :   1.0742
B(  4-C ,  8-H ) :   0.9201 B(  4-C ,  9-H ) :   0.9295 B(  5-C ,  6-H ) :   0.9185
B(  5-C ,  7-H ) :   0.9315 B( 13-N , 14-C ) :   0.9105 B( 13-N , 17-C ) :   0.9186
B( 14-C , 15-C ) :   1.0716 B( 14-C , 24-H ) :   0.9123 B( 14-C , 25-H ) :   0.9135
B( 15-C , 16-C ) :   1.0863 B( 15-C , 22-H ) :   0.9226 B( 15-C , 23-H ) :   0.9238
B( 16-C , 17-C ) :   1.0675 B( 16-C , 20-H ) :   0.9226 B( 16-C , 21-H ) :   0.9238
B( 17-C , 18-H ) :   0.9092 B( 17-C , 19-H ) :   0.9077

Dispersion correction           -0.025450471
FINAL SINGLE POINT ENERGY      -444.948367249529

DIPOLE MOMENT
-------------

Method             : SCF
Type of density    : Electron Density
Multiplicity       :   2
Irrep              :   0
Energy             :  -444.9229167790196584 Eh
Relativity type    :
Basis              : AO
                                X                 Y                 Z
Electronic contribution:     -0.746722673       1.255182375       0.056507642
Nuclear contribution   :      0.360970584      -1.012753361      -0.049963368
                        -----------------------------------------
Total Dipole Moment    :     -0.385752089       0.242429014       0.006544274
                        -----------------------------------------
Magnitude (a.u.)       :      0.455652640
Magnitude (Debye)      :      1.158176968

VIBRATIONAL FREQUENCIES
-----------------------

Scaling factor for frequencies =  1.000000000  (already applied!)

     0:       0.00 cm**-1
     1:       0.00 cm**-1
     2:       0.00 cm**-1
     3:       0.00 cm**-1
     4:       0.00 cm**-1
     5:       0.00 cm**-1
     6:      69.17 cm**-1
     7:      98.50 cm**-1
     8:     130.02 cm**-1
     9:     188.51 cm**-1
    10:     198.74 cm**-1
    11:     264.12 cm**-1
    12:     284.63 cm**-1
    13:     324.22 cm**-1
    14:     341.12 cm**-1
    15:     454.88 cm**-1
    16:     464.11 cm**-1
    17:     530.94 cm**-1
    18:     537.89 cm**-1
    19:     593.39 cm**-1
    20:     687.24 cm**-1
    21:     731.42 cm**-1
    22:     766.68 cm**-1
    23:     839.64 cm**-1
    24:     861.12 cm**-1
    25:     877.91 cm**-1
    26:     887.96 cm**-1
    27:     894.68 cm**-1
    28:     934.47 cm**-1
    29:     940.77 cm**-1
    30:     956.59 cm**-1
    31:     966.87 cm**-1
    32:    1004.94 cm**-1
    33:    1006.51 cm**-1
    34:    1072.92 cm**-1
    35:    1078.11 cm**-1
    36:    1091.41 cm**-1
    37:    1107.45 cm**-1
    38:    1111.45 cm**-1
    39:    1148.36 cm**-1
    40:    1174.60 cm**-1
    41:    1206.38 cm**-1
    42:    1212.66 cm**-1
    43:    1229.32 cm**-1
    44:    1254.96 cm**-1
    45:    1260.22 cm**-1
    46:    1286.14 cm**-1
    47:    1298.90 cm**-1
    48:    1324.56 cm**-1
    49:    1337.78 cm**-1
    50:    1366.06 cm**-1
    51:    1369.17 cm**-1
    52:    1376.45 cm**-1
    53:    1382.08 cm**-1
    54:    1391.77 cm**-1
    55:    1400.52 cm**-1
    56:    1404.21 cm**-1
    57:    1416.74 cm**-1
    58:    1435.83 cm**-1
    59:    1465.05 cm**-1
    60:    1473.49 cm**-1
    61:    1475.81 cm**-1
    62:    1475.91 cm**-1
    63:    1481.83 cm**-1
    64:    1497.26 cm**-1
    65:    1518.76 cm**-1
    66:    1550.61 cm**-1
    67:    2977.70 cm**-1
    68:    3025.96 cm**-1
    69:    3044.11 cm**-1
    70:    3054.33 cm**-1
    71:    3059.69 cm**-1
    72:    3061.73 cm**-1
    73:    3070.31 cm**-1
    74:    3079.74 cm**-1
    75:    3086.10 cm**-1
    76:    3107.23 cm**-1
    77:    3132.03 cm**-1
    78:    3135.32 cm**-1
    79:    3139.30 cm**-1
    80:    3143.15 cm**-1
    81:    3157.89 cm**-1
    82:    3162.85 cm**-1
    83:    3220.45 cm**-1

IR SPECTRUM
-----------

 Mode   freq       eps      Int      T**2         TX        TY        TZ
       cm**-1   L/(mol*cm) km/mol    a.u.
----------------------------------------------------------------------------
  6:     69.17   0.000058    0.29  0.000262  (-0.001391 -0.002062  0.015979)
  7:     98.50   0.000018    0.09  0.000058  ( 0.002937  0.003808 -0.005943)
  8:    130.02   0.000026    0.13  0.000063  ( 0.004475  0.000321  0.006536)
  9:    188.51   0.000091    0.46  0.000150  (-0.003188 -0.011796 -0.000960)
 10:    198.74   0.000217    1.09  0.000340  (-0.005994 -0.009159  0.014845)
 11:    264.12   0.000048    0.24  0.000057  (-0.004672  0.001824 -0.005668)
 12:    284.63   0.000246    1.25  0.000270  (-0.002575 -0.002838  0.015983)
 13:    324.22   0.000521    2.63  0.000502  ( 0.004796 -0.005485 -0.021177)
 14:    341.12   0.000087    0.44  0.000079  ( 0.008394  0.002924 -0.000390)
 15:    454.88   0.000104    0.52  0.000071  ( 0.004058 -0.007359 -0.000770)
 16:    464.11   0.000117    0.59  0.000078  (-0.002224 -0.001081  0.008500)
 17:    530.94   0.000654    3.30  0.000384  ( 0.014955 -0.002254  0.012476)
 18:    537.89   0.000290    1.46  0.000168  (-0.007261 -0.006688 -0.008408)
 19:    593.39   0.000388    1.96  0.000204  ( 0.000306 -0.001715  0.014173)
 20:    687.24   0.000571    2.89  0.000259  (-0.006053  0.002207  0.014764)
 21:    731.42   0.002072   10.47  0.000884  ( 0.017445 -0.001982  0.023992)
 22:    766.68   0.000046    0.23  0.000019  (-0.000360  0.004112  0.001261)
 23:    839.64   0.001149    5.81  0.000427  (-0.012008  0.010284  0.013310)
 24:    861.12   0.000780    3.94  0.000283  (-0.016610 -0.001930  0.001759)
 25:    877.91   0.000274    1.38  0.000097  ( 0.008943 -0.002231 -0.003526)
 26:    887.96   0.000381    1.92  0.000134  ( 0.002667  0.001889 -0.011093)
 27:    894.68   0.000113    0.57  0.000039  ( 0.002978  0.004913 -0.002507)
 28:    934.47   0.000381    1.93  0.000127  ( 0.010933 -0.002208 -0.001730)
 29:    940.77   0.000082    0.42  0.000027  (-0.001822 -0.004444 -0.002057)
 30:    956.59   0.000217    1.10  0.000071  (-0.008198 -0.001797 -0.000602)
 31:    966.87   0.002245   11.34  0.000724  (-0.018301 -0.018922  0.005611)
 32:   1004.94   0.000654    3.30  0.000203  (-0.008445 -0.005799 -0.009904)
 33:   1006.51   0.000617    3.12  0.000191  (-0.003305  0.012970  0.003494)
 34:   1072.92   0.000476    2.40  0.000138  ( 0.008660  0.007416 -0.002891)
 35:   1078.11   0.000687    3.47  0.000199  ( 0.012950  0.004220 -0.003642)
 36:   1091.41   0.001470    7.43  0.000420  (-0.015520 -0.012755 -0.004092)
 37:   1107.45   0.000055    0.28  0.000015  (-0.003055  0.002454  0.000308)
 38:   1111.45   0.000712    3.60  0.000200  (-0.013760 -0.002673 -0.001874)
 39:   1148.36   0.000179    0.91  0.000049  (-0.000946 -0.002465  0.006458)
 40:   1174.60   0.002289   11.57  0.000608  ( 0.010988  0.022076 -0.000241)
 41:   1206.38   0.000660    3.34  0.000171  ( 0.003250 -0.001854  0.012519)
 42:   1212.66   0.000764    3.86  0.000197  (-0.013987 -0.000809 -0.000620)
 43:   1229.32   0.000571    2.88  0.000145  ( 0.010351  0.006121 -0.000515)
 44:   1254.96   0.001332    6.73  0.000331  (-0.018058 -0.002145  0.000742)
 45:   1260.22   0.000036    0.18  0.000009  (-0.001125  0.000777  0.002667)
 46:   1286.14   0.001756    8.87  0.000426  (-0.004083 -0.013696 -0.014893)
 47:   1298.90   0.001102    5.57  0.000265  ( 0.002184 -0.010369  0.012348)
 48:   1324.56   0.000027    0.13  0.000006  ( 0.002274 -0.000699  0.000786)
 49:   1337.78   0.000233    1.18  0.000054  (-0.005476  0.004533  0.001956)
 50:   1366.06   0.001039    5.25  0.000237  ( 0.015096  0.002796 -0.001271)
 51:   1369.17   0.000610    3.08  0.000139  ( 0.007113  0.009381 -0.000698)
 52:   1376.45   0.000717    3.62  0.000163  ( 0.012243 -0.003468 -0.000760)
 53:   1382.08   0.001079    5.45  0.000244  ( 0.011901  0.010090 -0.000516)
 54:   1391.77   0.005783   29.23  0.001297  (-0.034418 -0.010210 -0.002807)
 55:   1400.52   0.003875   19.58  0.000863  (-0.018900 -0.021330 -0.007158)
 56:   1404.21   0.002514   12.70  0.000559  ( 0.022182  0.008093  0.001048)
 57:   1416.74   0.000952    4.81  0.000210  (-0.012645 -0.007052 -0.000172)
 58:   1435.83   0.002930   14.81  0.000637  (-0.013024 -0.020817 -0.005816)
 59:   1465.05   0.002348   11.87  0.000500  ( 0.019699 -0.010580 -0.000390)
 60:   1473.49   0.001945    9.83  0.000412  ( 0.013797  0.014751 -0.001974)
 61:   1475.81   0.002860   14.45  0.000605  ( 0.006700  0.020285 -0.012179)
 62:   1475.91   0.004548   22.99  0.000962  ( 0.003815 -0.007563 -0.029832)
 63:   1481.83   0.002200   11.12  0.000463  (-0.018952  0.009982  0.002143)
 64:   1497.26   0.000750    3.79  0.000156  (-0.012274  0.002080 -0.001151)
 65:   1518.76   0.012573   63.54  0.002583  ( 0.048274 -0.015885  0.000795)
 66:   1550.61   0.000934    4.72  0.000188  (-0.008895 -0.010360 -0.001241)
 67:   2977.70   0.003776   19.08  0.000396  ( 0.019891 -0.000213  0.000052)
 68:   3025.96   0.001267    6.40  0.000131  (-0.011206  0.001941 -0.001150)
 69:   3044.11   0.001350    6.82  0.000138  ( 0.011518 -0.000065  0.002402)
 70:   3054.33   0.001249    6.31  0.000128  ( 0.010225 -0.004777 -0.000438)
 71:   3059.69   0.000427    2.16  0.000044  (-0.005984 -0.001834  0.002086)
 72:   3061.73   0.002790   14.10  0.000284  (-0.001557 -0.001275  0.016743)
 73:   3070.31   0.000459    2.32  0.000047  (-0.000965  0.001976 -0.006463)
 74:   3079.74   0.000451    2.28  0.000046  (-0.006668 -0.000428 -0.001007)
 75:   3086.10   0.001579    7.98  0.000160  (-0.000785  0.002591  0.012342)
 76:   3107.23   0.000322    1.62  0.000032  (-0.003487 -0.002801  0.003506)
 77:   3132.03   0.000816    4.12  0.000081  ( 0.005864 -0.005964 -0.003366)
 78:   3135.32   0.000832    4.20  0.000083  ( 0.006316  0.002485  0.006061)
 79:   3139.30   0.000047    0.24  0.000005  (-0.000454  0.001894  0.000957)
 80:   3143.15   0.000152    0.77  0.000015  (-0.000187 -0.002814 -0.002680)
 81:   3157.89   0.000038    0.19  0.000004  (-0.001897 -0.000281 -0.000184)
 82:   3162.85   0.000208    1.05  0.000020  ( 0.000037  0.001648 -0.004215)
 83:   3220.45   0.000743    3.75  0.000072  (-0.007332 -0.004265  0.000111)

--------------------------
THERMOCHEMISTRY AT 298.15K
--------------------------

Temperature         ...   298.15 K
Pressure            ...     1.00 atm
Total Mass          ...   151.25 AMU
Quasi RRHO          ...     True
Cut-Off Frequency   ...     1.00 cm^-1

Throughout the following assumptions are being made:
  (1) The electronic state is orbitally nondegenerate
      but the spin degeneracy is treated
  (2) There are no thermally accessible electronically excited states
  (3) Hindered rotations indicated by low frequency modes are not
      treated as such but are treated as vibrations and this may
      cause some error
  (4) All equations used are the standard statistical mechanics
      equations for an ideal gas
  (5) All vibrations are strictly harmonic

freq.      69.17  E(vib)   ...       0.50
freq.      98.50  E(vib)   ...       0.46
freq.     130.02  E(vib)   ...       0.43
freq.     188.51  E(vib)   ...       0.36
freq.     198.74  E(vib)   ...       0.35
freq.     264.12  E(vib)   ...       0.29
freq.     284.63  E(vib)   ...       0.28
freq.     324.22  E(vib)   ...       0.25
freq.     341.12  E(vib)   ...       0.23
freq.     454.88  E(vib)   ...       0.16
freq.     464.11  E(vib)   ...       0.16
freq.     530.94  E(vib)   ...       0.13
freq.     537.89  E(vib)   ...       0.12
freq.     593.39  E(vib)   ...       0.10
freq.     687.24  E(vib)   ...       0.07
freq.     731.42  E(vib)   ...       0.06
freq.     766.68  E(vib)   ...       0.06
freq.     839.64  E(vib)   ...       0.04
freq.     861.12  E(vib)   ...       0.04
freq.     877.91  E(vib)   ...       0.04
freq.     887.96  E(vib)   ...       0.04
freq.     894.68  E(vib)   ...       0.03
freq.     934.47  E(vib)   ...       0.03
freq.     940.77  E(vib)   ...       0.03
freq.     956.59  E(vib)   ...       0.03
freq.     966.87  E(vib)   ...       0.03
freq.    1004.94  E(vib)   ...       0.02
freq.    1006.51  E(vib)   ...       0.02
freq.    1072.92  E(vib)   ...       0.02
freq.    1078.11  E(vib)   ...       0.02
freq.    1091.41  E(vib)   ...       0.02
freq.    1107.45  E(vib)   ...       0.02
freq.    1111.45  E(vib)   ...       0.01
freq.    1148.36  E(vib)   ...       0.01
freq.    1174.60  E(vib)   ...       0.01
freq.    1206.38  E(vib)   ...       0.01
freq.    1212.66  E(vib)   ...       0.01
freq.    1229.32  E(vib)   ...       0.01
freq.    1254.96  E(vib)   ...       0.01
freq.    1260.22  E(vib)   ...       0.01
freq.    1286.14  E(vib)   ...       0.01
freq.    1298.90  E(vib)   ...       0.01
freq.    1324.56  E(vib)   ...       0.01
freq.    1337.78  E(vib)   ...       0.01
freq.    1366.06  E(vib)   ...       0.01
freq.    1369.17  E(vib)   ...       0.01
freq.    1376.45  E(vib)   ...       0.01
freq.    1382.08  E(vib)   ...       0.01
freq.    1391.77  E(vib)   ...       0.00
freq.    1400.52  E(vib)   ...       0.00
freq.    1404.21  E(vib)   ...       0.00
freq.    1416.74  E(vib)   ...       0.00
freq.    1435.83  E(vib)   ...       0.00
freq.    1465.05  E(vib)   ...       0.00
freq.    1473.49  E(vib)   ...       0.00
freq.    1475.81  E(vib)   ...       0.00
freq.    1475.91  E(vib)   ...       0.00
freq.    1481.83  E(vib)   ...       0.00
freq.    1497.26  E(vib)   ...       0.00
freq.    1518.76  E(vib)   ...       0.00
freq.    1550.61  E(vib)   ...       0.00
freq.    2977.70  E(vib)   ...       0.00
freq.    3025.96  E(vib)   ...       0.00
freq.    3044.11  E(vib)   ...       0.00
freq.    3054.33  E(vib)   ...       0.00
freq.    3059.69  E(vib)   ...       0.00
freq.    3061.73  E(vib)   ...       0.00
freq.    3070.31  E(vib)   ...       0.00
freq.    3079.74  E(vib)   ...       0.00
freq.    3086.10  E(vib)   ...       0.00
freq.    3107.23  E(vib)   ...       0.00
freq.    3132.03  E(vib)   ...       0.00
freq.    3135.32  E(vib)   ...       0.00
freq.    3139.30  E(vib)   ...       0.00
freq.    3143.15  E(vib)   ...       0.00
freq.    3157.89  E(vib)   ...       0.00
freq.    3162.85  E(vib)   ...       0.00
freq.    3220.45  E(vib)   ...       0.00

------------
INNER ENERGY
------------

The inner energy is: U= E(el) + E(ZPE) + E(vib) + E(rot) + E(trans)
    E(el)   - is the total energy from the electronic structure calculation
              = E(kin-el) + E(nuc-el) + E(el-el) + E(nuc-nuc)
    E(ZPE)  - the the zero temperature vibrational energy from the frequency calculation
    E(vib)  - the the finite temperature correction to E(ZPE) due to population
              of excited vibrational states
    E(rot)  - is the rotational thermal energy
    E(trans)- is the translational thermal energy

Summary of contributions to the inner energy U:
Electronic energy                ...   -444.94836725 Eh
Zero point energy                ...      0.25782414 Eh     161.79 kcal/mol
Thermal vibrational correction   ...      0.00735041 Eh       4.61 kcal/mol
Thermal rotational correction    ...      0.00141627 Eh       0.89 kcal/mol
Thermal translational correction ...      0.00141627 Eh       0.89 kcal/mol
-----------------------------------------------------------------------
Total thermal energy                   -444.68036016 Eh

Summary of corrections to the electronic energy:
(perhaps to be used in another calculation)
Total thermal correction                  0.01018295 Eh       6.39 kcal/mol
Non-thermal (ZPE) correction              0.25782414 Eh     161.79 kcal/mol
-----------------------------------------------------------------------
Total correction                          0.26800709 Eh     168.18 kcal/mol

--------
ENTHALPY
--------

The enthalpy is H = U + kB*T
                kB is Boltzmann's constant
Total thermal energy              ...   -444.68036016 Eh
Thermal Enthalpy correction       ...      0.00094421 Eh       0.59 kcal/mol
-----------------------------------------------------------------------
Total Enthalpy                    ...   -444.67941595 Eh

Note: Only C1 symmetry has been detected, increase convergence thresholds
      if your molecule has a higher symmetry. Symmetry factor of 1.0 is
      used for the rotational entropy correction.

Note: Rotational entropy computed according to Herzberg
Infrared and Raman Spectra, Chapter V,1, Van Nostrand Reinhold, 1945
Point Group:  C1, Symmetry Number:   1
Rotational constants in cm-1:     0.091390     0.021094     0.017904

Vibrational entropy computed according to the QRRHO of S. Grimme
Chem.Eur.J. 2012 18 9955 using a reference frequency of 100.0 cm-1

-------
ENTROPY
-------

The entropy contributions are T*S = T*(S(el)+S(vib)+S(rot)+S(trans))

                             ****ORCA TERMINATED NORMALLY****
TOTAL RUN TIME: 0 days 0 hours 15 minutes 45 seconds 900 msec
