                         Program Version 6.0.0  -   RELEASE  -
|  1> !r2SCANh freq aug-cc-pVTZ d3 TightSCF SlowConv RIJCOSX defgrid2
|  2>
|  3> %pal
|  4> nprocs 12
|  5> end
|  6>
|  7> %scf
|  8> MaxIter 1500
|  9> end
| 10>
| 11> %maxcore 5000
| 12>
| 13> !CPCM
| 14> %cpcm smd true
| 15> SMDsolvent "MeCN"
| 16> surfacetype gepol_ses
| 17> rsolv 2.19
| 18> end
| 19>
| 20> * xyz 1 2
| 21> C          -0.22399642270064     -1.23718661443115     -0.03912800535607
| 22> C           1.14126676954659     -1.22168962309004      0.00222337769903
| 23> C           1.83401750028814     -0.00003911773010      0.02318012405605
| 24> C           1.14130994145843      1.22163673294070      0.00222799813539
| 25> C          -0.22395215378644      1.23718059997669     -0.03913531478612
| 26> C          -0.93180734604038      0.00000902891271     -0.05980084503908
| 27> N          -2.25078206624055      0.00003085258265     -0.09805402548754
| 28> H          -2.77388696694565      0.86352388498415     -0.11458464132867
| 29> H          -2.77391607787280     -0.86344516850113     -0.11457505052765
| 30> H          -0.78418090174284      2.16118721512492     -0.05638526787170
| 31> H           1.69204260751496      2.15041632009284      0.01869246812679
| 32> H           2.91374623148226     -0.00006021708029      0.05514256963886
| 33> H           1.69196568705163     -2.15048953253659      0.01868288600748
| 34> H          -0.78425850201272     -2.16117436124535     -0.05636147326678
| 35> *
| 36>
| 37>                          ****END OF INPUT****

CARTESIAN COORDINATES (ANGSTROEM)
---------------------------------
  C     -0.223996   -1.237187   -0.039128
  C      1.141267   -1.221690    0.002223
  C      1.834018   -0.000039    0.023180
  C      1.141310    1.221637    0.002228
  C     -0.223952    1.237181   -0.039135
  C     -0.931807    0.000009   -0.059801
  N     -2.250782    0.000031   -0.098054
  H     -2.773887    0.863524   -0.114585
  H     -2.773916   -0.863445   -0.114575
  H     -0.784181    2.161187   -0.056385
  H      1.692043    2.150416    0.018692
  H      2.913746   -0.000060    0.055143
  H      1.691966   -2.150490    0.018683
  H     -0.784259   -2.161174   -0.056361

 Total Charge           Charge          ....    1
 Multiplicity           Mult            ....    2
 Number of Electrons    NEL             ....   49
 Basis Dimension        Dim             ....  483

ORBITAL ENERGIES
----------------
                 SPIN UP ORBITALS
  NO   OCC          E(Eh)            E(eV)
   0   1.0000     -14.399878      -391.8406
   1   1.0000     -10.263042      -279.2716
   2   1.0000     -10.206731      -277.7393
   3   1.0000     -10.203122      -277.6411
   4   1.0000     -10.203121      -277.6410
   5   1.0000     -10.190102      -277.2868
   6   1.0000     -10.190098      -277.2867
   7   1.0000      -1.008163       -27.4335
   8   1.0000      -0.887620       -24.1534
   9   1.0000      -0.791840       -21.5471
  10   1.0000      -0.771903       -21.0046
  11   1.0000      -0.652539       -17.7565
  12   1.0000      -0.648981       -17.6597
  13   1.0000      -0.566683       -15.4202
  14   1.0000      -0.559539       -15.2258
  15   1.0000      -0.514773       -14.0077
  16   1.0000      -0.462526       -12.5860
  17   1.0000      -0.454036       -12.3550
  18   1.0000      -0.451700       -12.2914
  19   1.0000      -0.447165       -12.1680
  20   1.0000      -0.383576       -10.4376
  21   1.0000      -0.372621       -10.1395
  22   1.0000      -0.361940        -9.8489
  23   1.0000      -0.296654        -8.0724
  24   1.0000      -0.262737        -7.1494
  25   0.0000      -0.054278        -1.4770
  26   0.0000      -0.052780        -1.4362
  27   0.0000       0.007638         0.2078
  28   0.0000       0.020805         0.5661
  29   0.0000       0.025965         0.7065

                 SPIN DOWN ORBITALS
  NO   OCC          E(Eh)            E(eV)
   0   1.0000     -14.389601      -391.5609
   1   1.0000     -10.262945      -279.2689
   2   1.0000     -10.199416      -277.5402
   3   1.0000     -10.198635      -277.5190
   4   1.0000     -10.198634      -277.5189
   5   1.0000     -10.192764      -277.3592
   6   1.0000     -10.192751      -277.3589
   7   1.0000      -0.992500       -27.0073
   8   1.0000      -0.878205       -23.8972
   9   1.0000      -0.787741       -21.4355
  10   1.0000      -0.755103       -20.5474
  11   1.0000      -0.649914       -17.6851
  12   1.0000      -0.640994       -17.4423
  13   1.0000      -0.564747       -15.3675
  14   1.0000      -0.553934       -15.0733
  15   1.0000      -0.509565       -13.8660
  16   1.0000      -0.459178       -12.4949
  17   1.0000      -0.451349       -12.2818
  18   1.0000      -0.446756       -12.1568
  19   1.0000      -0.420473       -11.4417
  20   1.0000      -0.381549       -10.3825
  21   1.0000      -0.360330        -9.8051
  22   1.0000      -0.338971        -9.2239
  23   1.0000      -0.286426        -7.7941
  24   0.0000      -0.182517        -4.9665
  25   0.0000      -0.041319        -1.1244
  26   0.0000      -0.023571        -0.6414
  27   0.0000       0.009315         0.2535
  28   0.0000       0.022982         0.6254

MULLIKEN ATOMIC CHARGES AND SPIN POPULATIONS
--------------------------------------------
   0 C :   -0.684009    0.262334
   1 C :   -0.360030   -0.191391
   2 C :   -0.375993    0.446090
   3 C :   -0.360387   -0.191404
   4 C :   -0.684288    0.262309
   5 C :    1.223322    0.040999
   6 N :   -0.353285    0.413352
   7 H :    0.056377   -0.009144
   8 H :    0.056590   -0.009143
   9 H :    0.634482   -0.007538
  10 H :    0.328689   -0.011167
  11 H :    0.556290    0.013409
  12 H :    0.327432   -0.011170
  13 H :    0.634810   -0.007535
Sum of atomic charges         :    1.0000000

LOEWDIN ATOMIC CHARGES AND SPIN POPULATIONS
-------------------------------------------
   0 C :    0.287960    0.120466
   1 C :    0.250510    0.024947
   2 C :    0.267534    0.184630
   3 C :    0.250510    0.024946
   4 C :    0.287961    0.120467
   5 C :   -0.163088    0.129088
   6 N :    0.979385    0.258054
   7 H :   -0.199182    0.033836
   8 H :   -0.199181    0.033836
   9 H :   -0.146090    0.024103
  10 H :   -0.158690   -0.012755
  11 H :   -0.152848    0.047033
  12 H :   -0.158691   -0.012755
  13 H :   -0.146089    0.024103

  Mayer bond orders larger than 0.100000
B(  0-C ,  1-C ) :   1.3977 B(  0-C ,  2-C ) :   0.2985 B(  0-C ,  3-C ) :  -0.1528
B(  0-C ,  4-C ) :   0.3572 B(  0-C ,  5-C ) :   0.4834 B(  0-C ,  6-N ) :  -0.1435
B(  0-C , 13-H ) :   0.1427 B(  1-C ,  2-C ) :   0.9336 B(  1-C ,  3-C ) :  -0.1404
B(  1-C ,  4-C ) :  -0.1526 B(  1-C ,  5-C ) :  -0.2230 B(  1-C , 12-H ) :   0.8777
B(  2-C ,  3-C ) :   0.9347 B(  2-C ,  4-C ) :   0.2985 B(  2-C ,  5-C ) :  -0.1312
B(  2-C , 11-H ) :   0.4665 B(  3-C ,  4-C ) :   1.3983 B(  3-C ,  5-C ) :  -0.2231
B(  3-C , 10-H ) :   0.8759 B(  4-C ,  5-C ) :   0.4835 B(  4-C ,  6-N ) :  -0.1437
B(  4-C ,  9-H ) :   0.1431 B(  5-C ,  6-N ) :   0.9428 B(  5-C ,  9-H ) :   0.1040
B(  5-C , 13-H ) :   0.1040 B(  6-N ,  7-H ) :   1.1221 B(  6-N ,  8-H ) :   1.1216

Dispersion correction           -0.003938732
FINAL SINGLE POINT ENERGY      -287.356758308487

DIPOLE MOMENT
-------------

Method             : SCF
Type of density    : Electron Density
Multiplicity       :   2
Irrep              :   0
Energy             :  -287.3528195769546301 Eh
Relativity type    :
Basis              : AO
                                X                 Y                 Z
Electronic contribution:     -0.959437105       0.000023053      -0.028327429
Nuclear contribution   :     -0.817010206       0.000008816      -0.026221946
                        -----------------------------------------
Total Dipole Moment    :     -1.776447312       0.000031869      -0.054549374
                        -----------------------------------------
Magnitude (a.u.)       :      1.777284639
Magnitude (Debye)      :      4.517498540

VIBRATIONAL FREQUENCIES
-----------------------

Scaling factor for frequencies =  1.000000000  (already applied!)

     0:       0.00 cm**-1
     1:       0.00 cm**-1
     2:       0.00 cm**-1
     3:       0.00 cm**-1
     4:       0.00 cm**-1
     5:       0.00 cm**-1
     6:     169.15 cm**-1
     7:     350.78 cm**-1
     8:     381.31 cm**-1
     9:     432.03 cm**-1
    10:     532.08 cm**-1
    11:     538.11 cm**-1
    12:     572.23 cm**-1
    13:     597.57 cm**-1
    14:     619.85 cm**-1
    15:     786.01 cm**-1
    16:     803.62 cm**-1
    17:     837.96 cm**-1
    18:     930.09 cm**-1
    19:     997.05 cm**-1
    20:    1002.03 cm**-1
    21:    1005.75 cm**-1
    22:    1018.98 cm**-1
    23:    1026.12 cm**-1
    24:    1127.32 cm**-1
    25:    1162.13 cm**-1
    26:    1188.00 cm**-1
    27:    1359.20 cm**-1
    28:    1399.44 cm**-1
    29:    1406.73 cm**-1
    30:    1485.22 cm**-1
    31:    1520.54 cm**-1
    32:    1560.25 cm**-1
    33:    1623.29 cm**-1
    34:    1644.51 cm**-1
    35:    3212.44 cm**-1
    36:    3214.75 cm**-1
    37:    3222.47 cm**-1
    38:    3229.80 cm**-1
    39:    3237.16 cm**-1
    40:    3536.30 cm**-1
    41:    3655.72 cm**-1

IR SPECTRUM
-----------

 Mode   freq       eps      Int      T**2         TX        TY        TZ
       cm**-1   L/(mol*cm) km/mol    a.u.
----------------------------------------------------------------------------
  6:    169.15   0.003266   16.50  0.006025  (-0.003364  0.000001  0.077548)
  7:    350.78   0.000000    0.00  0.000000  ( 0.000001 -0.000408 -0.000001)
  8:    381.31   0.001639    8.28  0.001342  (-0.000001 -0.036627  0.000000)
  9:    432.03   0.006724   33.98  0.004857  ( 0.001919 -0.000001 -0.069666)
 10:    532.08   0.000480    2.43  0.000282  ( 0.016775  0.000001  0.000382)
 11:    538.11   0.000000    0.00  0.000000  ( 0.000001  0.000069 -0.000002)
 12:    572.23   0.052488  265.25  0.028624  ( 0.005635 -0.000001 -0.169093)
 13:    597.57   0.000026    0.13  0.000014  (-0.000002 -0.003687 -0.000000)
 14:    619.85   0.005556   28.08  0.002797  (-0.001568 -0.000000  0.052867)
 15:    786.01   0.017638   89.13  0.007003  (-0.002461  0.000001  0.083646)
 16:    803.62   0.000000    0.00  0.000000  ( 0.000000  0.000117 -0.000014)
 17:    837.96   0.000251    1.27  0.000093  (-0.009652 -0.000001 -0.000434)
 18:    930.09   0.001903    9.62  0.000638  (-0.000341 -0.000001  0.025265)
 19:    997.05   0.000000    0.00  0.000000  (-0.000000 -0.000109  0.000005)
 20:   1002.03   0.000002    0.01  0.000001  (-0.000874 -0.000000  0.000031)
 21:   1005.75   0.000230    1.16  0.000071  (-0.000316  0.000002  0.008450)
 22:   1018.98   0.000460    2.32  0.000141  (-0.011855  0.000001 -0.000555)
 23:   1026.12   0.000048    0.24  0.000015  ( 0.000003  0.003829 -0.000001)
 24:   1127.32   0.005123   25.89  0.001418  ( 0.000001 -0.037658 -0.000000)
 25:   1162.13   0.000032    0.16  0.000009  ( 0.000002  0.002935 -0.000000)
 26:   1188.00   0.000615    3.11  0.000161  ( 0.012700  0.000000  0.000351)
 27:   1359.20   0.000006    0.03  0.000001  (-0.000002 -0.001170  0.000001)
 28:   1399.44   0.006382   32.25  0.001423  ( 0.000003 -0.037723  0.000002)
 29:   1406.73   0.002151   10.87  0.000477  ( 0.021834  0.000003  0.000630)
 30:   1485.22   0.000920    4.65  0.000193  (-0.000004  0.013906 -0.000000)
 31:   1520.54   0.018940   95.71  0.003887  ( 0.062320  0.000002  0.001802)
 32:   1560.25   0.003072   15.52  0.000614  ( 0.000007 -0.024787  0.000000)
 33:   1623.29   0.037233  188.16  0.007158  ( 0.084565 -0.000000  0.002548)
 34:   1644.51   0.021249  107.39  0.004032  ( 0.063475 -0.000001  0.001811)
 35:   3212.44   0.000271    1.37  0.000026  ( 0.005127 -0.000006  0.000086)
 36:   3214.75   0.000247    1.25  0.000024  ( 0.000007  0.004896  0.000000)
 37:   3222.47   0.001044    5.28  0.000101  (-0.010049 -0.000001 -0.000352)
 38:   3229.80   0.000384    1.94  0.000037  (-0.000006  0.006095 -0.000000)
 39:   3237.16   0.000728    3.68  0.000070  ( 0.008370  0.000003  0.000300)
 40:   3536.30   0.091563  462.72  0.008080  ( 0.089848  0.000001  0.002729)
 41:   3655.72   0.034459  174.14  0.002941  ( 0.000002 -0.054235  0.000000)

--------------------------
THERMOCHEMISTRY AT 298.15K
--------------------------

Temperature         ...   298.15 K
Pressure            ...     1.00 atm
Total Mass          ...    93.13 AMU
Quasi RRHO          ...     True
Cut-Off Frequency   ...     1.00 cm^-1

Throughout the following assumptions are being made:
  (1) The electronic state is orbitally nondegenerate
      but the spin degeneracy is treated
  (2) There are no thermally accessible electronically excited states
  (3) Hindered rotations indicated by low frequency modes are not
      treated as such but are treated as vibrations and this may
      cause some error
  (4) All equations used are the standard statistical mechanics
      equations for an ideal gas
  (5) All vibrations are strictly harmonic

freq.     169.15  E(vib)   ...       0.38
freq.     350.78  E(vib)   ...       0.23
freq.     381.31  E(vib)   ...       0.21
freq.     432.03  E(vib)   ...       0.18
freq.     532.08  E(vib)   ...       0.13
freq.     538.11  E(vib)   ...       0.12
freq.     572.23  E(vib)   ...       0.11
freq.     597.57  E(vib)   ...       0.10
freq.     619.85  E(vib)   ...       0.09
freq.     786.01  E(vib)   ...       0.05
freq.     803.62  E(vib)   ...       0.05
freq.     837.96  E(vib)   ...       0.04
freq.     930.09  E(vib)   ...       0.03
freq.     997.05  E(vib)   ...       0.02
freq.    1002.03  E(vib)   ...       0.02
freq.    1005.75  E(vib)   ...       0.02
freq.    1018.98  E(vib)   ...       0.02
freq.    1026.12  E(vib)   ...       0.02
freq.    1127.32  E(vib)   ...       0.01
freq.    1162.13  E(vib)   ...       0.01
freq.    1188.00  E(vib)   ...       0.01
freq.    1359.20  E(vib)   ...       0.01
freq.    1399.44  E(vib)   ...       0.00
freq.    1406.73  E(vib)   ...       0.00
freq.    1485.22  E(vib)   ...       0.00
freq.    1520.54  E(vib)   ...       0.00
freq.    1560.25  E(vib)   ...       0.00
freq.    1623.29  E(vib)   ...       0.00
freq.    1644.51  E(vib)   ...       0.00
freq.    3212.44  E(vib)   ...       0.00
freq.    3214.75  E(vib)   ...       0.00
freq.    3222.47  E(vib)   ...       0.00
freq.    3229.80  E(vib)   ...       0.00
freq.    3237.16  E(vib)   ...       0.00
freq.    3536.30  E(vib)   ...       0.00
freq.    3655.72  E(vib)   ...       0.00

------------
INNER ENERGY
------------

The inner energy is: U= E(el) + E(ZPE) + E(vib) + E(rot) + E(trans)
    E(el)   - is the total energy from the electronic structure calculation
              = E(kin-el) + E(nuc-el) + E(el-el) + E(nuc-nuc)
    E(ZPE)  - the the zero temperature vibrational energy from the frequency calculation
    E(vib)  - the the finite temperature correction to E(ZPE) due to population
              of excited vibrational states
    E(rot)  - is the rotational thermal energy
    E(trans)- is the translational thermal energy

Summary of contributions to the inner energy U:
Electronic energy                ...   -287.35675831 Eh
Zero point energy                ...      0.11706594 Eh      73.46 kcal/mol
Thermal vibrational correction   ...      0.00301989 Eh       1.90 kcal/mol
Thermal rotational correction    ...      0.00141627 Eh       0.89 kcal/mol
Thermal translational correction ...      0.00141627 Eh       0.89 kcal/mol
-----------------------------------------------------------------------
Total thermal energy                   -287.23383993 Eh

Summary of corrections to the electronic energy:
(perhaps to be used in another calculation)
Total thermal correction                  0.00585244 Eh       3.67 kcal/mol
Non-thermal (ZPE) correction              0.11706594 Eh      73.46 kcal/mol
-----------------------------------------------------------------------
Total correction                          0.12291838 Eh      77.13 kcal/mol

--------
ENTHALPY
--------

The enthalpy is H = U + kB*T
                kB is Boltzmann's constant
Total thermal energy              ...   -287.23383993 Eh
Thermal Enthalpy correction       ...      0.00094421 Eh       0.59 kcal/mol
-----------------------------------------------------------------------
Total Enthalpy                    ...   -287.23289572 Eh

Note: Rotational entropy computed according to Herzberg
Infrared and Raman Spectra, Chapter V,1, Van Nostrand Reinhold, 1945
Point Group:  Cs, Symmetry Number:   1
Rotational constants in cm-1:     0.181533     0.090864     0.060554

Vibrational entropy computed according to the QRRHO of S. Grimme
Chem.Eur.J. 2012 18 9955 using a reference frequency of 100.0 cm-1

-------
ENTROPY
-------

The entropy contributions are T*S = T*(S(el)+S(vib)+S(rot)+S(trans))
     S(el)   - electronic entropy
     S(vib)  - vibrational entropy
     S(rot)  - rotational entropy
     S(trans)- translational entropy
The entropies will be listed as multiplied by the temperature to get
units of energy

Electronic entropy                ...      0.00065446 Eh      0.41 kcal/mol
Vibrational entropy               ...      0.00448541 Eh      2.81 kcal/mol
Rotational entropy                ...      0.01277245 Eh      8.01 kcal/mol
Translational entropy             ...      0.01877043 Eh     11.78 kcal/mol
-----------------------------------------------------------------------
Final entropy term                ...      0.03668274 Eh     23.02 kcal/mol

In case the symmetry of your molecule has not been determined correctly
or in case you have a reason to use a different symmetry number we print
out the resulting rotational entropy values for sn=1,12:

 non-linear molecules -----------------------------------
|  sn= 1 | S(rot)=       0.01277245 Eh      8.01 kcal/mol|
|  sn= 2 | S(rot)=       0.01211799 Eh      7.60 kcal/mol|
|  sn= 3 | S(rot)=       0.01173516 Eh      7.36 kcal/mol|
|  sn= 4 | S(rot)=       0.01146353 Eh      7.19 kcal/mol|
|  sn= 5 | S(rot)=       0.01125285 Eh      7.06 kcal/mol|
|  sn= 6 | S(rot)=       0.01108070 Eh      6.95 kcal/mol|
|  sn= 7 | S(rot)=       0.01093516 Eh      6.86 kcal/mol|
|  sn= 8 | S(rot)=       0.01080908 Eh      6.78 kcal/mol|
|  sn= 9 | S(rot)=       0.01069787 Eh      6.71 kcal/mol|
|  sn=10 | S(rot)=       0.01059839 Eh      6.65 kcal/mol|
|  sn=11 | S(rot)=       0.01050840 Eh      6.59 kcal/mol|
|  sn=12 | S(rot)=       0.01042625 Eh      6.54 kcal/mol|
 linear molecules ---------------------------------------
|  Dinfh | S(rot)=       0.00797349 Eh      5.00 kcal/mol|
|  Cinfv | S(rot)=       0.00862795 Eh      5.41 kcal/mol|
 --------------------------------------------------------

-------------------
GIBBS FREE ENERGY
-------------------

The Gibbs free energy is G = H - T*S

Total enthalpy                    ...   -287.23289572 Eh
Total entropy correction          ...     -0.03668274 Eh    -23.02 kcal/mol
-----------------------------------------------------------------------
Final Gibbs free energy         ...   -287.26957847 Eh

                             ****ORCA TERMINATED NORMALLY****
TOTAL RUN TIME: 0 days 0 hours 32 minutes 27 seconds 666 msec
