                         Program Version 6.0.0  -   RELEASE  -
|  1> !r2SCAN freq aug-cc-pVTZ d3 TightSCF SlowConv RIJCOSX defgrid2
|  2>
|  3> %pal
|  4> nprocs 12
|  5> end
|  6>
|  7> %scf
|  8> MaxIter 1500
|  9> end
| 10>
| 11> %maxcore 5000
| 12>
| 13> !CPCM
| 14> %cpcm smd true
| 15> SMDsolvent "MeCN"
| 16> surfacetype gepol_ses
| 17> rsolv 2.19
| 18> end
| 19>
| 20> * xyz -1 2
| 21> C          -1.17278171550795     -1.25393556806539     -0.00049761022766
| 22> C          -2.51653902591233     -0.94655888951165     -0.00058537451949
| 23> C          -2.96062889319484      0.38608630567311     -0.00021660364140
| 24> C          -1.99715961091731      1.40957760410147      0.00033484018253
| 25> C          -0.64624679830210      1.12996349347095      0.00045835154382
| 26> C          -0.17467117385781     -0.21878943686286      0.00001960777785
| 27> C           1.16977968256552     -0.63326106929435      0.00027411586469
| 28> O           1.69863351533822     -1.73416004730160      0.00019771819063
| 29> Cl          2.43262649368797      0.86147624082259      0.00010301176055
| 30> H           0.07100790489712      1.93942259339865      0.00121931829374
| 31> H          -2.31749563809703      2.44672454580346      0.00118794638948
| 32> H          -4.01842654132869      0.61877549691892     -0.00006672734212
| 33> H          -3.24130280397611     -1.75493942298438     -0.00101521130437
| 34> H          -0.84747269539465     -2.28737184616893     -0.00086788296824
| 35> *
| 36>
| 37>                          ****END OF INPUT****

CARTESIAN COORDINATES (ANGSTROEM)
---------------------------------
  C     -1.172782   -1.253936   -0.000498
  C     -2.516539   -0.946559   -0.000585
  C     -2.960629    0.386086   -0.000217
  C     -1.997160    1.409578    0.000335
  C     -0.646247    1.129963    0.000458
  C     -0.174671   -0.218789    0.000020
  C      1.169780   -0.633261    0.000274
  O      1.698634   -1.734160    0.000198
  Cl     2.432626    0.861476    0.000103
  H      0.071008    1.939423    0.001219
  H     -2.317496    2.446725    0.001188
  H     -4.018427    0.618775   -0.000067
  H     -3.241303   -1.754939   -0.001015
  H     -0.847473   -2.287372   -0.000868

 Total Charge           Charge          ....   -1
 Multiplicity           Mult            ....    2
 Number of Electrons    NEL             ....   73
 Basis Dimension        Dim             ....  533

ORBITAL ENERGIES
----------------
                 SPIN UP ORBITALS
  NO   OCC          E(Eh)            E(eV)
   0   1.0000    -101.170341     -2752.9849
   1   1.0000     -18.923597      -514.9373
   2   1.0000     -10.109289      -275.0877
   3   1.0000     -10.031331      -272.9664
   4   1.0000     -10.021893      -272.7096
   5   1.0000     -10.021337      -272.6945
   6   1.0000     -10.021054      -272.6867
   7   1.0000     -10.020413      -272.6693
   8   1.0000     -10.015516      -272.5360
   9   1.0000      -9.323018      -253.6922
  10   1.0000      -7.066433      -192.2874
  11   1.0000      -7.060530      -192.1268
  12   1.0000      -7.059921      -192.1102
  13   1.0000      -0.982781       -26.7428
  14   1.0000      -0.805048       -21.9065
  15   1.0000      -0.744544       -20.2601
  16   1.0000      -0.705785       -19.2054
  17   1.0000      -0.697767       -18.9872
  18   1.0000      -0.596355       -16.2277
  19   1.0000      -0.551307       -15.0018
  20   1.0000      -0.503116       -13.6905
  21   1.0000      -0.453662       -12.3448
  22   1.0000      -0.414281       -11.2732
  23   1.0000      -0.405378       -11.0309
  24   1.0000      -0.381077       -10.3696
  25   1.0000      -0.374928       -10.2023
  26   1.0000      -0.371142       -10.0993
  27   1.0000      -0.359098        -9.7716
  28   1.0000      -0.323867        -8.8129
  29   1.0000      -0.311252        -8.4696
  30   1.0000      -0.286053        -7.7839
  31   1.0000      -0.259185        -7.0528
  32   1.0000      -0.257034        -6.9942
  33   1.0000      -0.231507        -6.2996
  34   1.0000      -0.230167        -6.2632
  35   1.0000      -0.225203        -6.1281
  36   1.0000      -0.095997        -2.6122
  37   0.0000      -0.022093        -0.6012
  38   0.0000      -0.004369        -0.1189
  39   0.0000       0.012360         0.3363
  40   0.0000       0.023050         0.6272
  41   0.0000       0.025019         0.6808

                 SPIN DOWN ORBITALS
  NO   OCC          E(Eh)            E(eV)
   0   1.0000    -101.170319     -2752.9843
   1   1.0000     -18.917638      -514.7751
   2   1.0000     -10.103579      -274.9324
   3   1.0000     -10.031039      -272.9585
   4   1.0000     -10.023509      -272.7535
   5   1.0000     -10.022599      -272.7288
   6   1.0000     -10.017981      -272.6031
   7   1.0000     -10.017196      -272.5818
   8   1.0000     -10.010383      -272.3964
   9   1.0000      -9.323006      -253.6919
  10   1.0000      -7.066607      -192.2921
  11   1.0000      -7.060276      -192.1199
  12   1.0000      -7.059924      -192.1103
  13   1.0000      -0.973358       -26.4864
  14   1.0000      -0.800692       -21.7879
  15   1.0000      -0.741731       -20.1835
  16   1.0000      -0.700578       -19.0637
  17   1.0000      -0.694313       -18.8932
  18   1.0000      -0.583575       -15.8799
  19   1.0000      -0.550074       -14.9683
  20   1.0000      -0.499137       -13.5822
  21   1.0000      -0.448518       -12.2048
  22   1.0000      -0.412014       -11.2115
  23   1.0000      -0.400913       -10.9094
  24   1.0000      -0.379486       -10.3263
  25   1.0000      -0.370350       -10.0777
  26   1.0000      -0.356260        -9.6943
  27   1.0000      -0.350757        -9.5446
  28   1.0000      -0.309089        -8.4107
  29   1.0000      -0.308960        -8.4072
  30   1.0000      -0.285180        -7.7601
  31   1.0000      -0.256326        -6.9750
  32   1.0000      -0.254270        -6.9190
  33   1.0000      -0.222177        -6.0458
  34   1.0000      -0.222017        -6.0414
  35   1.0000      -0.212758        -5.7894
  36   0.0000      -0.055625        -1.5136
  37   0.0000      -0.016469        -0.4481
  38   0.0000       0.001736         0.0472
  39   0.0000       0.016200         0.4408
  40   0.0000       0.026585         0.7234

MULLIKEN ATOMIC CHARGES AND SPIN POPULATIONS
--------------------------------------------
   0 C :   -0.920591    0.283179
   1 C :   -0.408973   -0.182901
   2 C :   -0.385704    0.371539
   3 C :   -0.619554   -0.166788
   4 C :   -0.985337    0.285742
   5 C :    1.724804   -0.003321
   6 C :    0.388826    0.274297
   7 O :   -0.835388    0.202999
   8 Cl:   -0.491880    0.007197
   9 H :    0.175171   -0.016714
  10 H :    0.429174   -0.014466
  11 H :    0.493998   -0.014213
  12 H :    0.366976   -0.006365
  13 H :    0.068478   -0.020184
Sum of atomic charges         :   -1.0000000

LOEWDIN ATOMIC CHARGES AND SPIN POPULATIONS
-------------------------------------------
   0 C :    0.141929    0.102149
   1 C :    0.142395    0.025003
   2 C :    0.153723    0.138019
   3 C :    0.139948    0.026136
   4 C :    0.104250    0.098736
   5 C :   -0.332333    0.118001
   6 C :   -1.095814    0.212685
   7 O :    0.293556    0.186008
   8 Cl:    0.537855    0.025400
   9 H :   -0.279705    0.021587
  10 H :   -0.194773   -0.007068
  11 H :   -0.207352    0.037687
  12 H :   -0.193629   -0.007700
  13 H :   -0.210048    0.023358

  Mayer bond orders larger than 0.100000
B(  0-C ,  1-C ) :   1.2054 B(  0-C ,  4-C ) :  -0.1945 B(  0-C ,  6-C ) :   0.2420
B(  0-C , 12-H ) :  -0.1255 B(  0-C , 13-H ) :   1.0378 B(  1-C ,  2-C ) :   0.9247
B(  1-C ,  4-C ) :  -0.1074 B(  1-C ,  5-C ) :   0.1100 B(  1-C , 12-H ) :   0.7848
B(  2-C ,  3-C ) :   0.9528 B(  2-C ,  5-C ) :  -0.1754 B(  2-C ,  6-C ) :   0.1419
B(  2-C , 11-H ) :   0.6028 B(  3-C ,  4-C ) :   1.2189 B(  3-C , 10-H ) :   0.6959
B(  4-C ,  5-C ) :  -0.1409 B(  4-C ,  6-C ) :   0.3500 B(  4-C ,  9-H ) :   1.3087
B(  4-C , 10-H ) :  -0.1403 B(  4-C , 13-H ) :   0.1127 B(  5-C ,  6-C ) :   0.6765
B(  5-C ,  7-O ) :   0.2281 B(  5-C , 13-H ) :  -0.1172 B(  6-C ,  7-O ) :   0.8072
B(  6-C ,  8-Cl) :   0.6819 B(  7-O ,  8-Cl) :   0.1082 B(  7-O , 13-H ) :   0.1576
B(  8-Cl,  9-H ) :  -0.1225

Dispersion correction           -0.004719419
FINAL SINGLE POINT ENERGY      -805.233785952396

DIPOLE MOMENT
-------------

Method             : SCF
Type of density    : Electron Density
Multiplicity       :   2
Irrep              :   0
Energy             :  -805.2290665333744073 Eh
Relativity type    :
Basis              : AO
                                X                 Y                 Z
Electronic contribution:     10.974499315       0.983611959       0.000076825
Nuclear contribution   :    -13.032840896      -0.332496827       0.000180836
                        -----------------------------------------
Total Dipole Moment    :     -2.058341581       0.651115132       0.000257661
                        -----------------------------------------
Magnitude (a.u.)       :      2.158870317
Magnitude (Debye)      :      5.487412253

VIBRATIONAL FREQUENCIES
-----------------------

Scaling factor for frequencies =  1.000000000  (already applied!)

     0:       0.00 cm**-1
     1:       0.00 cm**-1
     2:       0.00 cm**-1
     3:       0.00 cm**-1
     4:       0.00 cm**-1
     5:       0.00 cm**-1
     6:      80.72 cm**-1
     7:     134.52 cm**-1
     8:     177.94 cm**-1
     9:     251.78 cm**-1
    10:     331.19 cm**-1
    11:     343.99 cm**-1
    12:     428.62 cm**-1
    13:     467.06 cm**-1
    14:     477.81 cm**-1
    15:     601.63 cm**-1
    16:     622.95 cm**-1
    17:     677.29 cm**-1
    18:     703.99 cm**-1
    19:     800.76 cm**-1
    20:     805.15 cm**-1
    21:     816.49 cm**-1
    22:     965.23 cm**-1
    23:     966.29 cm**-1
    24:     985.15 cm**-1
    25:    1011.70 cm**-1
    26:    1090.08 cm**-1
    27:    1143.45 cm**-1
    28:    1169.05 cm**-1
    29:    1226.75 cm**-1
    30:    1301.01 cm**-1
    31:    1360.71 cm**-1
    32:    1437.48 cm**-1
    33:    1475.67 cm**-1
    34:    1518.06 cm**-1
    35:    1593.54 cm**-1
    36:    1732.36 cm**-1
    37:    3141.88 cm**-1
    38:    3145.65 cm**-1
    39:    3173.62 cm**-1
    40:    3180.40 cm**-1
    41:    3194.42 cm**-1

IR SPECTRUM
-----------

 Mode   freq       eps      Int      T**2         TX        TY        TZ
       cm**-1   L/(mol*cm) km/mol    a.u.
----------------------------------------------------------------------------
  6:     80.72   0.000043    0.22  0.000165  (-0.000355 -0.000505 -0.012844)
  7:    134.52   0.000071    0.36  0.000164  (-0.000391 -0.000554  0.012789)
  8:    177.94   0.001022    5.17  0.001793  ( 0.031246  0.028577  0.000122)
  9:    251.78   0.026944  136.16  0.033394  ( 0.133652  0.124624  0.000093)
 10:    331.19   0.000159    0.80  0.000149  (-0.000429  0.000051 -0.012216)
 11:    343.99   0.003263   16.49  0.002960  ( 0.026201  0.047686 -0.000122)
 12:    428.62   0.000125    0.63  0.000091  (-0.000125 -0.000032  0.009526)
 13:    467.06   0.006068   30.67  0.004054  (-0.000450 -0.000029  0.063672)
 14:    477.81   0.006843   34.58  0.004469  (-0.064477 -0.017665 -0.000058)
 15:    601.63   0.052401  264.81  0.027180  ( 0.128577  0.103191 -0.000004)
 16:    622.95   0.001203    6.08  0.000603  ( 0.021744  0.011395 -0.000338)
 17:    677.29   0.025368  128.20  0.011688  ( 0.000054  0.000227 -0.108112)
 18:    703.99   0.012929   65.34  0.005731  (-0.000101  0.000062 -0.075703)
 19:    800.76   0.000042    0.21  0.000016  (-0.000214 -0.000351  0.004018)
 20:    805.15   0.032611  164.80  0.012639  (-0.069586 -0.088302 -0.000037)
 21:    816.49   0.003247   16.41  0.001241  ( 0.000045 -0.000139 -0.035230)
 22:    965.23   0.000000    0.00  0.000000  ( 0.000083  0.000245  0.000283)
 23:    966.29   0.000003    0.02  0.000001  ( 0.000194 -0.000455 -0.000916)
 24:    985.15   0.004892   24.72  0.001550  ( 0.027781 -0.027889  0.000079)
 25:   1011.70   0.017744   89.67  0.005473  (-0.070722  0.021719  0.000058)
 26:   1090.08   0.002437   12.31  0.000698  ( 0.018719 -0.018633  0.000001)
 27:   1143.45   0.001317    6.66  0.000359  ( 0.007864 -0.017253  0.000022)
 28:   1169.05   0.009653   48.78  0.002577  ( 0.023687 -0.044897  0.000020)
 29:   1226.75   0.026071  131.75  0.006632  (-0.019690 -0.079022 -0.000006)
 30:   1301.01   0.002858   14.44  0.000686  ( 0.026089  0.002212 -0.000020)
 31:   1360.71   0.007775   39.29  0.001783  (-0.021294 -0.036463 -0.000058)
 32:   1437.48   0.002865   14.48  0.000622  (-0.015428  0.019595  0.000029)
 33:   1475.67   0.009452   47.77  0.001999  (-0.032405  0.030803  0.000024)
 34:   1518.06   0.002510   12.69  0.000516  (-0.011636  0.019510 -0.000020)
 35:   1593.54   0.061951  313.07  0.012132  (-0.099637  0.046950  0.000039)
 36:   1732.36   0.195548  988.22  0.035226  (-0.130177  0.135202 -0.000028)
 37:   3141.88   0.002682   13.55  0.000266  (-0.016092 -0.002727 -0.000026)
 38:   3145.65   0.008649   43.71  0.000858  ( 0.002570  0.029178 -0.000077)
 39:   3173.62   0.006445   32.57  0.000634  ( 0.007908 -0.023899  0.000034)
 40:   3180.40   0.007889   39.87  0.000774  ( 0.026226  0.009289  0.000035)
 41:   3194.42   0.002104   10.63  0.000206  (-0.001478  0.014261  0.000041)

--------------------------
THERMOCHEMISTRY AT 298.15K
--------------------------

Temperature         ...   298.15 K
Pressure            ...     1.00 atm
Total Mass          ...   140.57 AMU
Quasi RRHO          ...     True
Cut-Off Frequency   ...     1.00 cm^-1

Throughout the following assumptions are being made:
  (1) The electronic state is orbitally nondegenerate
      but the spin degeneracy is treated
  (2) There are no thermally accessible electronically excited states
  (3) Hindered rotations indicated by low frequency modes are not
      treated as such but are treated as vibrations and this may
      cause some error
  (4) All equations used are the standard statistical mechanics
      equations for an ideal gas
  (5) All vibrations are strictly harmonic

freq.      80.72  E(vib)   ...       0.48
freq.     134.52  E(vib)   ...       0.42
freq.     177.94  E(vib)   ...       0.37
freq.     251.78  E(vib)   ...       0.30
freq.     331.19  E(vib)   ...       0.24
freq.     343.99  E(vib)   ...       0.23
freq.     428.62  E(vib)   ...       0.18
freq.     467.06  E(vib)   ...       0.16
freq.     477.81  E(vib)   ...       0.15
freq.     601.63  E(vib)   ...       0.10
freq.     622.95  E(vib)   ...       0.09
freq.     677.29  E(vib)   ...       0.08
freq.     703.99  E(vib)   ...       0.07
freq.     800.76  E(vib)   ...       0.05
freq.     805.15  E(vib)   ...       0.05
freq.     816.49  E(vib)   ...       0.05
freq.     965.23  E(vib)   ...       0.03
freq.     966.29  E(vib)   ...       0.03
freq.     985.15  E(vib)   ...       0.02
freq.    1011.70  E(vib)   ...       0.02
freq.    1090.08  E(vib)   ...       0.02
freq.    1143.45  E(vib)   ...       0.01
freq.    1169.05  E(vib)   ...       0.01
freq.    1226.75  E(vib)   ...       0.01
freq.    1301.01  E(vib)   ...       0.01
freq.    1360.71  E(vib)   ...       0.01
freq.    1437.48  E(vib)   ...       0.00
freq.    1475.67  E(vib)   ...       0.00
freq.    1518.06  E(vib)   ...       0.00
freq.    1593.54  E(vib)   ...       0.00
freq.    1732.36  E(vib)   ...       0.00
freq.    3141.88  E(vib)   ...       0.00
freq.    3145.65  E(vib)   ...       0.00
freq.    3173.62  E(vib)   ...       0.00
freq.    3180.40  E(vib)   ...       0.00
freq.    3194.42  E(vib)   ...       0.00

------------
INNER ENERGY
------------

The inner energy is: U= E(el) + E(ZPE) + E(vib) + E(rot) + E(trans)
    E(el)   - is the total energy from the electronic structure calculation
              = E(kin-el) + E(nuc-el) + E(el-el) + E(nuc-nuc)
    E(ZPE)  - the the zero temperature vibrational energy from the frequency calculation
    E(vib)  - the the finite temperature correction to E(ZPE) due to population
              of excited vibrational states
    E(rot)  - is the rotational thermal energy
    E(trans)- is the translational thermal energy

Summary of contributions to the inner energy U:
Electronic energy                ...   -805.23378595 Eh
Zero point energy                ...      0.09690051 Eh      60.81 kcal/mol
Thermal vibrational correction   ...      0.00509660 Eh       3.20 kcal/mol
Thermal rotational correction    ...      0.00141627 Eh       0.89 kcal/mol
Thermal translational correction ...      0.00141627 Eh       0.89 kcal/mol
-----------------------------------------------------------------------
Total thermal energy                   -805.12895631 Eh

Summary of corrections to the electronic energy:
(perhaps to be used in another calculation)
Total thermal correction                  0.00792914 Eh       4.98 kcal/mol
Non-thermal (ZPE) correction              0.09690051 Eh      60.81 kcal/mol
-----------------------------------------------------------------------
Total correction                          0.10482965 Eh      65.78 kcal/mol

--------
ENTHALPY
--------

The enthalpy is H = U + kB*T
                kB is Boltzmann's constant
Total thermal energy              ...   -805.12895631 Eh
Thermal Enthalpy correction       ...      0.00094421 Eh       0.59 kcal/mol
-----------------------------------------------------------------------
Total Enthalpy                    ...   -805.12801210 Eh

Note: Only C1 symmetry has been detected, increase convergence thresholds
      if your molecule has a higher symmetry. Symmetry factor of 1.0 is
      used for the rotational entropy correction.

Note: Rotational entropy computed according to Herzberg
Infrared and Raman Spectra, Chapter V,1, Van Nostrand Reinhold, 1945
Point Group:  C1, Symmetry Number:   1
Rotational constants in cm-1:     0.099848     0.030284     0.023236

Vibrational entropy computed according to the QRRHO of S. Grimme
Chem.Eur.J. 2012 18 9955 using a reference frequency of 100.0 cm-1

-------
ENTROPY
-------

The entropy contributions are T*S = T*(S(el)+S(vib)+S(rot)+S(trans))
     S(el)   - electronic entropy
     S(vib)  - vibrational entropy
     S(rot)  - rotational entropy
     S(trans)- translational entropy
The entropies will be listed as multiplied by the temperature to get
units of energy

Electronic entropy                ...      0.00065446 Eh      0.41 kcal/mol
Vibrational entropy               ...      0.00844262 Eh      5.30 kcal/mol
Rotational entropy                ...      0.01402556 Eh      8.80 kcal/mol
Translational entropy             ...      0.01935352 Eh     12.14 kcal/mol
-----------------------------------------------------------------------
Final entropy term                ...      0.04247615 Eh     26.65 kcal/mol

In case the symmetry of your molecule has not been determined correctly
or in case you have a reason to use a different symmetry number we print
out the resulting rotational entropy values for sn=1,12:

 non-linear molecules -----------------------------------
|  sn= 1 | S(rot)=       0.01402556 Eh      8.80 kcal/mol|
|  sn= 2 | S(rot)=       0.01337110 Eh      8.39 kcal/mol|
|  sn= 3 | S(rot)=       0.01298827 Eh      8.15 kcal/mol|
|  sn= 4 | S(rot)=       0.01271665 Eh      7.98 kcal/mol|
|  sn= 5 | S(rot)=       0.01250596 Eh      7.85 kcal/mol|
|  sn= 6 | S(rot)=       0.01233381 Eh      7.74 kcal/mol|
|  sn= 7 | S(rot)=       0.01218827 Eh      7.65 kcal/mol|
|  sn= 8 | S(rot)=       0.01206219 Eh      7.57 kcal/mol|
|  sn= 9 | S(rot)=       0.01195098 Eh      7.50 kcal/mol|
|  sn=10 | S(rot)=       0.01185150 Eh      7.44 kcal/mol|
|  sn=11 | S(rot)=       0.01176151 Eh      7.38 kcal/mol|
|  sn=12 | S(rot)=       0.01167936 Eh      7.33 kcal/mol|
 linear molecules ---------------------------------------
|  Dinfh | S(rot)=       0.00887786 Eh      5.57 kcal/mol|
|  Cinfv | S(rot)=       0.00953232 Eh      5.98 kcal/mol|
 --------------------------------------------------------

-------------------
GIBBS FREE ENERGY
-------------------

The Gibbs free energy is G = H - T*S

                             ****ORCA TERMINATED NORMALLY****
TOTAL RUN TIME: 0 days 0 hours 47 minutes 30 seconds 545 msec
