                         Program Version 6.0.0  -   RELEASE  -
|  1> !B3LYP freq aug-cc-pVTZ d3 TightSCF SlowConv RIJCOSX defgrid2
|  2>
|  3> %pal
|  4> nprocs 12
|  5>
|  6> end
|  7>
|  8> %scf
|  9> MaxIter 1500
| 10> end
| 11>
| 12> %maxcore 5000
| 13>
| 14> !CPCM
| 15> %cpcm smd true
| 16> SMDsolvent "MeCN"
| 17> surfacetype gepol_ses
| 18> rsolv 2.19
| 19> end
| 20>
| 21> * xyz 1 2
| 22>   C           1.36912960755769     -0.83279110568741      0.61679395855222
| 23>   C           2.63465589398093     -1.37702738898234      0.63278792293411
| 24>   C           3.71214668973516     -0.67431714416636      0.08508011264428
| 25>   C           3.52798008915069      0.60080221027963     -0.46473966991936
| 26>   C           2.27570986893554      1.17034272504090     -0.47871902367158
| 27>   C           1.19569777635559      0.43492172472125      0.03485400308527
| 28>   O           0.00007361431502      1.06595302260962     -0.00133468065455
| 29>   C          -1.19560209911849      0.43478010524600     -0.03656496434721
| 30>   C          -2.27510171291874      1.17005711949632      0.47809524205750
| 31>   C          -3.52739619949150      0.60037787811388      0.46574765949380
| 32>   C          -3.71214817755744     -0.67472582356855     -0.08372336821308
| 33>   C          -2.63521941299972     -1.37736695307578     -0.63270045944940
| 34>   C          -1.36973634246555     -0.83293272169813     -0.61827944587498
| 35>   H          -0.54213779936240     -1.33848976369374     -1.09079697163181
| 36>   H          -2.79699055434290     -2.34043682015593     -1.09397451179892
| 37>   H          -4.70076620393367     -1.11011013012065     -0.10533002265876
| 38>   H          -4.36836352422177      1.13810055022204      0.87810726366249
| 39>   H          -2.09436396463241      2.14945066967456      0.89612828830785
| 40>   H           2.09538497783501      2.14975657985010     -0.89693714937713
| 41>   H           4.36943718086059      1.13863304227318     -0.87590758533831
| 42>   H           4.70078479609400     -1.10963495051877      0.10778419141952
| 43>   H           2.79603582352822     -2.34001858858174      1.09431164838037
| 44>   H           0.54082047269613     -1.33756853727805      1.08878316239771
| 45> *
| 46>
| 47>                          ****END OF INPUT****

CARTESIAN COORDINATES (ANGSTROEM)
---------------------------------
  C      1.369130   -0.832791    0.616794
  C      2.634656   -1.377027    0.632788
  C      3.712147   -0.674317    0.085080
  C      3.527980    0.600802   -0.464740
  C      2.275710    1.170343   -0.478719
  C      1.195698    0.434922    0.034854
  O      0.000074    1.065953   -0.001335
  C     -1.195602    0.434780   -0.036565
  C     -2.275102    1.170057    0.478095
  C     -3.527396    0.600378    0.465748
  C     -3.712148   -0.674726   -0.083723
  C     -2.635219   -1.377367   -0.632700
  C     -1.369736   -0.832933   -0.618279
  H     -0.542138   -1.338490   -1.090797
  H     -2.796991   -2.340437   -1.093975
  H     -4.700766   -1.110110   -0.105330
  H     -4.368364    1.138101    0.878107
  H     -2.094364    2.149451    0.896128
  H      2.095385    2.149757   -0.896937
  H      4.369437    1.138633   -0.875908
  H      4.700785   -1.109635    0.107784
  H      2.796036   -2.340019    1.094312
  H      0.540820   -1.337569    1.088783

 Total Charge           Charge          ....    1
 Multiplicity           Mult            ....    2
 Number of Electrons    NEL             ....   89
 Basis Dimension        Dim             ....  828

ORBITAL ENERGIES
----------------
                 SPIN UP ORBITALS
  NO   OCC          E(Eh)            E(eV)
   0   1.0000     -19.258332      -524.0459
   1   1.0000     -10.291230      -280.0386
   2   1.0000     -10.291219      -280.0383
   3   1.0000     -10.215985      -277.9911
   4   1.0000     -10.215845      -277.9873
   5   1.0000     -10.214413      -277.9483
   6   1.0000     -10.214382      -277.9475
   7   1.0000     -10.212127      -277.8861
   8   1.0000     -10.212110      -277.8857
   9   1.0000     -10.204664      -277.6830
  10   1.0000     -10.204604      -277.6814
  11   1.0000     -10.204561      -277.6802
  12   1.0000     -10.204556      -277.6801
  13   1.0000      -1.167591       -31.7718
  14   1.0000      -0.906252       -24.6604
  15   1.0000      -0.887485       -24.1497
  16   1.0000      -0.812924       -22.1208
  17   1.0000      -0.790755       -21.5175
  18   1.0000      -0.783716       -21.3260
  19   1.0000      -0.760685       -20.6993
  20   1.0000      -0.687545       -18.7090
  21   1.0000      -0.657482       -17.8910
  22   1.0000      -0.637963       -17.3599
  23   1.0000      -0.613553       -16.6956
  24   1.0000      -0.584999       -15.9186
  25   1.0000      -0.541305       -14.7297
  26   1.0000      -0.524630       -14.2759
  27   1.0000      -0.524444       -14.2708
  28   1.0000      -0.516459       -14.0536
  29   1.0000      -0.474736       -12.9182
  30   1.0000      -0.472034       -12.8447
  31   1.0000      -0.459349       -12.4995
  32   1.0000      -0.458665       -12.4809
  33   1.0000      -0.449660       -12.2359
  34   1.0000      -0.442695       -12.0463
  35   1.0000      -0.407225       -11.0812
  36   1.0000      -0.398639       -10.8475
  37   1.0000      -0.391374       -10.6498
  38   1.0000      -0.388736       -10.5781
  39   1.0000      -0.371064       -10.0972
  40   1.0000      -0.369829       -10.0636
  41   1.0000      -0.297736        -8.1018
  42   1.0000      -0.294150        -8.0042
  43   1.0000      -0.290205        -7.8969
  44   1.0000      -0.265559        -7.2262
  45   0.0000      -0.058118        -1.5815
  46   0.0000      -0.045689        -1.2433
  47   0.0000      -0.039028        -1.0620
  48   0.0000      -0.031991        -0.8705
  49   0.0000      -0.007654        -0.2083

                 SPIN DOWN ORBITALS
  NO   OCC          E(Eh)            E(eV)
   0   1.0000     -19.251158      -523.8507
   1   1.0000     -10.290191      -280.0103
   2   1.0000     -10.290176      -280.0099
   3   1.0000     -10.214394      -277.9478
   4   1.0000     -10.214252      -277.9439
   5   1.0000     -10.211381      -277.8658
   6   1.0000     -10.211355      -277.8651
   7   1.0000     -10.210770      -277.8492
   8   1.0000     -10.210752      -277.8487
   9   1.0000     -10.205331      -277.7012
  10   1.0000     -10.205272      -277.6996
  11   1.0000     -10.205108      -277.6951
  12   1.0000     -10.205105      -277.6950
  13   1.0000      -1.154768       -31.4228
  14   1.0000      -0.901627       -24.5345
  15   1.0000      -0.882914       -24.0253
  16   1.0000      -0.808159       -21.9911
  17   1.0000      -0.788477       -21.4555
  18   1.0000      -0.781516       -21.2661
  19   1.0000      -0.752421       -20.4744
  20   1.0000      -0.682593       -18.5743
  21   1.0000      -0.655263       -17.8306
  22   1.0000      -0.634414       -17.2633
  23   1.0000      -0.610409       -16.6101
  24   1.0000      -0.582740       -15.8572
  25   1.0000      -0.538767       -14.6606
  26   1.0000      -0.521741       -14.1973
  27   1.0000      -0.516309       -14.0495
  28   1.0000      -0.504466       -13.7272
  29   1.0000      -0.470364       -12.7993
  30   1.0000      -0.469139       -12.7659
  31   1.0000      -0.457217       -12.4415
  32   1.0000      -0.456771       -12.4294
  33   1.0000      -0.444129       -12.0854
  34   1.0000      -0.436666       -11.8823
  35   1.0000      -0.397689       -10.8217
  36   1.0000      -0.397088       -10.8053
  37   1.0000      -0.388433       -10.5698
  38   1.0000      -0.379732       -10.3330
  39   1.0000      -0.367045        -9.9878
  40   1.0000      -0.361588        -9.8393
  41   1.0000      -0.290861        -7.9147
  42   1.0000      -0.286020        -7.7830
  43   1.0000      -0.273159        -7.4330
  44   0.0000      -0.202970        -5.5231
  45   0.0000      -0.046792        -1.2733
  46   0.0000      -0.038969        -1.0604
  47   0.0000      -0.031028        -0.8443
  48   0.0000      -0.015984        -0.4350

MULLIKEN ATOMIC CHARGES AND SPIN POPULATIONS
--------------------------------------------
   0 C :   -0.389160    0.096363
   1 C :   -0.647890   -0.049271
   2 C :   -0.483773    0.207106
   3 C :   -0.380800   -0.036148
   4 C :   -1.048041    0.072615
   5 C :    1.465455    0.102443
   6 O :   -0.728264    0.231625
   7 C :    1.472895    0.101947
   8 C :   -1.063483    0.073353
   9 C :   -0.377965   -0.036093
  10 C :   -0.471036    0.206898
  11 C :   -0.638517   -0.049308
  12 C :   -0.395312    0.097179
  13 H :    0.532836   -0.006928
  14 H :    0.403496    0.003495
  15 H :    0.499709    0.001969
  16 H :    0.412819    0.000884
  17 H :    0.485525   -0.009786
  18 H :    0.487427   -0.009300
  19 H :    0.421142    0.001136
  20 H :    0.502028    0.002340
  21 H :    0.400412    0.003130
  22 H :    0.540499   -0.005648
Sum of atomic charges         :    1.0000000

LOEWDIN ATOMIC CHARGES AND SPIN POPULATIONS
-------------------------------------------
   0 C :    0.247310    0.064149
   1 C :    0.249421    0.027110
   2 C :    0.257161    0.102076
   3 C :    0.242119    0.028758
   4 C :    0.256121    0.055545
   5 C :   -0.315625    0.088080
   6 O :    0.689472    0.192506
   7 C :   -0.315573    0.087832
   8 C :    0.256171    0.055540
   9 C :    0.242100    0.028656
  10 C :    0.257096    0.101885
  11 C :    0.249395    0.027072
  12 C :    0.246902    0.064024
  13 H :   -0.161598    0.010664
  14 H :   -0.155833   -0.002658
  15 H :   -0.153689    0.023977
  16 H :   -0.157854   -0.002149
  17 H :   -0.152203    0.008525
  18 H :   -0.152179    0.008514
  19 H :   -0.157866   -0.002135
  20 H :   -0.153655    0.024019
  21 H :   -0.155891   -0.002666
  22 H :   -0.161303    0.010677

  Mayer bond orders larger than 0.100000
B(  0-C ,  1-C ) :   1.2495 B(  0-C ,  2-C ) :   0.1042 B(  0-C ,  4-C ) :   0.2166
B(  0-C ,  5-C ) :   0.7234 B(  0-C , 12-C ) :   0.1961 B(  0-C , 22-H ) :   0.5259
B(  1-C ,  2-C ) :   1.2433 B(  1-C ,  4-C ) :  -0.1020 B(  1-C ,  5-C ) :  -0.3071
B(  1-C , 21-H ) :   0.7817 B(  2-C ,  3-C ) :   1.1712 B(  2-C ,  4-C ) :   0.3445
B(  2-C ,  5-C ) :  -0.1124 B(  2-C , 20-H ) :   0.5769 B(  3-C ,  4-C ) :   1.3800
B(  3-C ,  5-C ) :  -0.3675 B(  3-C , 19-H ) :   0.7515 B(  4-C ,  5-C ) :   0.2727
B(  4-C ,  6-O ) :   0.2645 B(  4-C , 18-H ) :   0.4139 B(  5-C ,  6-O ) :   0.6220
B(  5-C ,  7-C ) :   0.1027 B(  6-O ,  7-C ) :   0.6207 B(  6-O ,  8-C ) :   0.2655
B(  7-C ,  8-C ) :   0.2626 B(  7-C ,  9-C ) :  -0.3738 B(  7-C , 11-C ) :  -0.3028
B(  7-C , 12-C ) :   0.7225 B(  8-C ,  9-C ) :   1.4171 B(  8-C , 10-C ) :   0.3445
B(  8-C , 11-C ) :  -0.1064 B(  8-C , 12-C ) :   0.2066 B(  8-C , 17-H ) :   0.4166
B(  9-C , 10-C ) :   1.1394 B(  9-C , 16-H ) :   0.7620 B( 10-C , 11-C ) :   1.2341
B( 10-C , 12-C ) :   0.1115 B( 10-C , 15-H ) :   0.5846 B( 11-C , 12-C ) :   1.2503
B( 11-C , 14-H ) :   0.7774 B( 12-C , 13-H ) :   0.5347

Dispersion correction           -0.046080229
FINAL SINGLE POINT ENERGY      -538.222470577703

DIPOLE MOMENT
-------------

Method             : SCF
Type of density    : Electron Density
Multiplicity       :   2
Irrep              :   0
Energy             :  -538.1763903491811334 Eh
Relativity type    :
Basis              : AO
                                X                 Y                 Z
Electronic contribution:      0.000894698       2.168618257       0.001269032
Nuclear contribution   :     -0.000280975      -2.673215282       0.003979794
                        -----------------------------------------
Total Dipole Moment    :      0.000613722      -0.504597025       0.005248826
                        -----------------------------------------
Magnitude (a.u.)       :      0.504624697
Magnitude (Debye)      :      1.282654045

VIBRATIONAL FREQUENCIES
-----------------------

Scaling factor for frequencies =  1.000000000  (already applied!)

     0:       0.00 cm**-1
     1:       0.00 cm**-1
     2:       0.00 cm**-1
     3:       0.00 cm**-1
     4:       0.00 cm**-1
     5:       0.00 cm**-1
     6:     -48.83 cm**-1 ***imaginary mode***
     7:       9.39 cm**-1
     8:      81.58 cm**-1
     9:     205.36 cm**-1
    10:     221.60 cm**-1
    11:     313.05 cm**-1
    12:     355.48 cm**-1
    13:     390.01 cm**-1
    14:     407.97 cm**-1
    15:     468.59 cm**-1
    16:     469.95 cm**-1
    17:     550.00 cm**-1
    18:     586.92 cm**-1
    19:     600.48 cm**-1
    20:     634.04 cm**-1
    21:     659.83 cm**-1
    22:     661.90 cm**-1
    23:     768.22 cm**-1
    24:     773.80 cm**-1
    25:     805.63 cm**-1
    26:     807.97 cm**-1
    27:     820.22 cm**-1
    28:     886.04 cm**-1
    29:     939.37 cm**-1
    30:     948.30 cm**-1
    31:     980.63 cm**-1
    32:     998.86 cm**-1
    33:    1000.40 cm**-1
    34:    1012.48 cm**-1
    35:    1019.22 cm**-1
    36:    1019.45 cm**-1
    37:    1021.99 cm**-1
    38:    1023.51 cm**-1
    39:    1054.38 cm**-1
    40:    1100.74 cm**-1
    41:    1106.59 cm**-1
    42:    1160.99 cm**-1
    43:    1162.25 cm**-1
    44:    1177.69 cm**-1
    45:    1208.84 cm**-1
    46:    1242.37 cm**-1
    47:    1321.81 cm**-1
    48:    1342.65 cm**-1
    49:    1362.73 cm**-1
    50:    1364.24 cm**-1
    51:    1463.99 cm**-1
    52:    1474.50 cm**-1
    53:    1486.01 cm**-1
    54:    1495.23 cm**-1
    55:    1551.04 cm**-1
    56:    1554.79 cm**-1
    57:    1572.58 cm**-1
    58:    1638.66 cm**-1
    59:    3193.36 cm**-1
    60:    3193.50 cm**-1
    61:    3201.41 cm**-1
    62:    3201.58 cm**-1
    63:    3206.60 cm**-1
    64:    3207.20 cm**-1
    65:    3213.54 cm**-1
    66:    3214.34 cm**-1
    67:    3216.23 cm**-1
    68:    3220.49 cm**-1

IR SPECTRUM
-----------

 Mode   freq       eps      Int      T**2         TX        TY        TZ
       cm**-1   L/(mol*cm) km/mol    a.u.
----------------------------------------------------------------------------
  7:      9.39   0.013793   69.70  0.458514  (-0.668573 -0.000129 -0.107351)
  8:     81.58   0.000054    0.27  0.000206  ( 0.000543  0.014332 -0.000019)
  9:    205.36   0.078072  394.54  0.118638  ( 0.344119 -0.000008  0.014856)
 10:    221.60   0.000025    0.13  0.000035  ( 0.005886  0.000427  0.000170)
 11:    313.05   0.000141    0.71  0.000141  (-0.000478  0.011858  0.000057)
 12:    355.48   0.040162  202.96  0.035257  (-0.186532  0.000037 -0.021503)
 13:    390.01   0.027429  138.61  0.021947  (-0.148110  0.000077 -0.003245)
 14:    407.97   0.000051    0.26  0.000039  ( 0.001434 -0.006049  0.000200)
 15:    468.59   0.001725    8.72  0.001149  (-0.018182 -0.028607  0.000310)
 16:    469.95   0.235429  1189.76  0.156332  ( 0.395288 -0.001375 -0.008798)
 17:    550.00   0.143813  726.77  0.081598  ( 0.284249 -0.000037  0.028291)
 18:    586.92   0.000101    0.51  0.000054  ( 0.000450  0.007306  0.000063)
 19:    600.48   0.016536   83.56  0.008593  ( 0.091013 -0.000101  0.017606)
 20:    634.04   0.000490    2.47  0.000241  ( 0.000287 -0.015514 -0.000439)
 21:    659.83   0.021411  108.20  0.010126  (-0.019069  0.002164  0.098783)
 22:    661.90   0.005310   26.84  0.002504  (-0.000170 -0.049857  0.004239)
 23:    768.22   0.001028    5.20  0.000418  (-0.001451  0.020369 -0.000837)
 24:    773.80   0.127022  641.92  0.051226  ( 0.200423  0.000013  0.105151)
 25:    805.63   0.005040   25.47  0.001952  ( 0.002646  0.044105 -0.000167)
 26:    807.97   0.055172  278.82  0.021309  ( 0.145514 -0.001198 -0.011553)
 27:    820.22   0.001153    5.83  0.000439  ( 0.002393  0.020806 -0.000165)
 28:    886.04   0.130720  660.60  0.046040  (-0.214538  0.000059 -0.003637)
 29:    939.37   0.080234  405.47  0.026654  (-0.160197  0.000236 -0.031477)
 30:    948.30   0.001037    5.24  0.000341  ( 0.000238  0.018467  0.000269)
 31:    980.63   0.858732  4339.68  0.273273  (-0.522725  0.000133 -0.005633)
 32:    998.86   0.001004    5.07  0.000314  (-0.017672 -0.000006 -0.001132)
 33:   1000.40   0.000008    0.04  0.000003  (-0.001361 -0.000830 -0.000026)
 34:   1012.48   0.000033    0.17  0.000010  (-0.000049 -0.003192 -0.000043)
 35:   1019.22   0.002038   10.30  0.000624  ( 0.024669  0.003678 -0.001359)
 36:   1019.45   0.003141   15.87  0.000961  (-0.030786  0.003519  0.001133)
 37:   1021.99   0.006648   33.60  0.002030  ( 0.044961  0.000181  0.002920)
 38:   1023.51   0.000044    0.22  0.000014  ( 0.003181  0.001823  0.000298)
 39:   1054.38   0.819413  4140.98  0.242521  ( 0.492359 -0.000237  0.010198)
 40:   1100.74   0.003874   19.58  0.001098  ( 0.021133 -0.000414  0.025523)
 41:   1106.59   0.006416   32.42  0.001809  (-0.001704 -0.042501 -0.000311)
 42:   1160.99   0.000180    0.91  0.000048  ( 0.000180 -0.006958 -0.000055)
 43:   1162.25   0.000547    2.76  0.000147  (-0.011233 -0.000190  0.004533)
 44:   1177.69   0.000216    1.09  0.000057  ( 0.000120 -0.007566  0.000065)
 45:   1208.84   0.101970  515.31  0.026324  (-0.162211  0.000141 -0.003376)
 46:   1242.37   0.001411    7.13  0.000354  ( 0.000707  0.018812  0.000078)
 47:   1321.81   0.003053   15.43  0.000721  ( 0.025867  0.000133 -0.007189)
 48:   1342.65   0.001313    6.64  0.000305  ( 0.000317 -0.017469  0.000046)
 49:   1362.73   0.007257   36.67  0.001662  ( 0.002676 -0.040670 -0.000736)
 50:   1364.24   0.021440  108.35  0.004904  (-0.067610 -0.001649  0.018181)
 51:   1463.99   0.066477  335.95  0.014170  ( 0.118995 -0.000002 -0.003201)
 52:   1474.50   0.001899    9.59  0.000402  (-0.013024 -0.000048 -0.015237)
 53:   1486.01   0.000243    1.23  0.000051  ( 0.000235  0.007139  0.000010)
 54:   1495.23   0.009936   50.21  0.002074  ( 0.000416 -0.045537 -0.000066)
 55:   1551.04   0.066874  337.95  0.013455  ( 0.115857  0.000457 -0.005631)
 56:   1554.79   0.001480    7.48  0.000297  ( 0.004106 -0.016736 -0.000260)
 57:   1572.58   0.527418  2665.35  0.104661  ( 0.323336 -0.000106  0.010723)
 58:   1638.66   0.000071    0.36  0.000013  (-0.000289  0.003658 -0.000048)
 59:   3193.36   0.000075    0.38  0.000007  (-0.002005 -0.001821 -0.000017)
 60:   3193.50   0.000394    1.99  0.000039  (-0.006164  0.000713 -0.000047)
 61:   3201.41   0.000629    3.18  0.000061  ( 0.004198 -0.002916 -0.005934)
 62:   3201.58   0.000920    4.65  0.000090  (-0.001298 -0.009206  0.001802)
 63:   3206.60   0.000889    4.49  0.000087  (-0.009137 -0.000121 -0.001745)
 64:   3207.20   0.000740    3.74  0.000072  ( 0.000162 -0.008479  0.000194)
 65:   3213.54   0.009586   48.44  0.000931  (-0.030466 -0.000101 -0.001642)
 66:   3214.34   0.000238    1.20  0.000023  ( 0.001396 -0.004594  0.000059)
 67:   3216.23   0.032810  165.81  0.003183  ( 0.056421 -0.000220 -0.000305)
 68:   3220.49   0.000484    2.45  0.000047  (-0.002211 -0.006474  0.000282)

--------------------------
THERMOCHEMISTRY AT 298.15K
--------------------------

Temperature         ...   298.15 K
Pressure            ...     1.00 atm
Total Mass          ...   170.21 AMU
Quasi RRHO          ...     True
Cut-Off Frequency   ...     1.00 cm^-1

Throughout the following assumptions are being made:
  (1) The electronic state is orbitally nondegenerate
      but the spin degeneracy is treated
  (2) There are no thermally accessible electronically excited states
  (3) Hindered rotations indicated by low frequency modes are not
      treated as such but are treated as vibrations and this may
      cause some error
  (4) All equations used are the standard statistical mechanics
      equations for an ideal gas
  (5) All vibrations are strictly harmonic

freq.       9.39  E(vib)   ...       0.58
freq.      81.58  E(vib)   ...       0.48
freq.     205.36  E(vib)   ...       0.35
freq.     221.60  E(vib)   ...       0.33
freq.     313.05  E(vib)   ...       0.25
freq.     355.48  E(vib)   ...       0.22
freq.     390.01  E(vib)   ...       0.20
freq.     407.97  E(vib)   ...       0.19
freq.     468.59  E(vib)   ...       0.16
freq.     469.95  E(vib)   ...       0.16
freq.     550.00  E(vib)   ...       0.12
freq.     586.92  E(vib)   ...       0.10
freq.     600.48  E(vib)   ...       0.10
freq.     634.04  E(vib)   ...       0.09
freq.     659.83  E(vib)   ...       0.08
freq.     661.90  E(vib)   ...       0.08
freq.     768.22  E(vib)   ...       0.06
freq.     773.80  E(vib)   ...       0.05
freq.     805.63  E(vib)   ...       0.05
freq.     807.97  E(vib)   ...       0.05
freq.     820.22  E(vib)   ...       0.05
freq.     886.04  E(vib)   ...       0.04
freq.     939.37  E(vib)   ...       0.03
freq.     948.30  E(vib)   ...       0.03
freq.     980.63  E(vib)   ...       0.02
freq.     998.86  E(vib)   ...       0.02
freq.    1000.40  E(vib)   ...       0.02
freq.    1012.48  E(vib)   ...       0.02
freq.    1019.22  E(vib)   ...       0.02
freq.    1019.45  E(vib)   ...       0.02
freq.    1021.99  E(vib)   ...       0.02
freq.    1023.51  E(vib)   ...       0.02
freq.    1054.38  E(vib)   ...       0.02
freq.    1100.74  E(vib)   ...       0.02
freq.    1106.59  E(vib)   ...       0.02
freq.    1160.99  E(vib)   ...       0.01
freq.    1162.25  E(vib)   ...       0.01
freq.    1177.69  E(vib)   ...       0.01
freq.    1208.84  E(vib)   ...       0.01
freq.    1242.37  E(vib)   ...       0.01
freq.    1321.81  E(vib)   ...       0.01
freq.    1342.65  E(vib)   ...       0.01
freq.    1362.73  E(vib)   ...       0.01
freq.    1364.24  E(vib)   ...       0.01
freq.    1463.99  E(vib)   ...       0.00
freq.    1474.50  E(vib)   ...       0.00
freq.    1486.01  E(vib)   ...       0.00
freq.    1495.23  E(vib)   ...       0.00
freq.    1551.04  E(vib)   ...       0.00
freq.    1554.79  E(vib)   ...       0.00
freq.    1572.58  E(vib)   ...       0.00
freq.    1638.66  E(vib)   ...       0.00
freq.    3193.36  E(vib)   ...       0.00
freq.    3193.50  E(vib)   ...       0.00
freq.    3201.41  E(vib)   ...       0.00
freq.    3201.58  E(vib)   ...       0.00
freq.    3206.60  E(vib)   ...       0.00
freq.    3207.20  E(vib)   ...       0.00
freq.    3213.54  E(vib)   ...       0.00
freq.    3214.34  E(vib)   ...       0.00
freq.    3216.23  E(vib)   ...       0.00
freq.    3220.49  E(vib)   ...       0.00

------------
INNER ENERGY
------------

The inner energy is: U= E(el) + E(ZPE) + E(vib) + E(rot) + E(trans)
    E(el)   - is the total energy from the electronic structure calculation
              = E(kin-el) + E(nuc-el) + E(el-el) + E(nuc-nuc)
    E(ZPE)  - the the zero temperature vibrational energy from the frequency calculation
    E(vib)  - the the finite temperature correction to E(ZPE) due to population
              of excited vibrational states
    E(rot)  - is the rotational thermal energy
    E(trans)- is the translational thermal energy

Summary of contributions to the inner energy U:
Electronic energy                ...   -538.22247058 Eh
Zero point energy                ...      0.18305667 Eh     114.87 kcal/mol
Thermal vibrational correction   ...      0.00663961 Eh       4.17 kcal/mol
Thermal rotational correction    ...      0.00141627 Eh       0.89 kcal/mol
Thermal translational correction ...      0.00141627 Eh       0.89 kcal/mol
-----------------------------------------------------------------------
Total thermal energy                   -538.02994175 Eh

Summary of corrections to the electronic energy:
(perhaps to be used in another calculation)
Total thermal correction                  0.00947216 Eh       5.94 kcal/mol
Non-thermal (ZPE) correction              0.18305667 Eh     114.87 kcal/mol
-----------------------------------------------------------------------
Total correction                          0.19252883 Eh     120.81 kcal/mol

--------
ENTHALPY
--------

The enthalpy is H = U + kB*T
                kB is Boltzmann's constant
Total thermal energy              ...   -538.02994175 Eh
Thermal Enthalpy correction       ...      0.00094421 Eh       0.59 kcal/mol
-----------------------------------------------------------------------
Total Enthalpy                    ...   -538.02899754 Eh

Note: Only C1 symmetry has been detected, increase convergence thresholds
      if your molecule has a higher symmetry. Symmetry factor of 1.0 is
      used for the rotational entropy correction.

Note: Rotational entropy computed according to Herzberg
Infrared and Raman Spectra, Chapter V,1, Van Nostrand Reinhold, 1945
Point Group:  C1, Symmetry Number:   1
Rotational constants in cm-1:     0.082576     0.014705     0.013219

Vibrational entropy computed according to the QRRHO of S. Grimme
Chem.Eur.J. 2012 18 9955 using a reference frequency of 100.0 cm-1

-------
ENTROPY
-------

The entropy contributions are T*S = T*(S(el)+S(vib)+S(rot)+S(trans))
     S(el)   - electronic entropy
     S(vib)  - vibrational entropy
     S(rot)  - rotational entropy
     S(trans)- translational entropy
The entropies will be listed as multiplied by the temperature to get
units of energy

Electronic entropy                ...      0.00065446 Eh      0.41 kcal/mol
Vibrational entropy               ...      0.01130227 Eh      7.09 kcal/mol
Rotational entropy                ...      0.01472255 Eh      9.24 kcal/mol
Translational entropy             ...      0.01962451 Eh     12.31 kcal/mol
-----------------------------------------------------------------------
Final entropy term                ...      0.04630378 Eh     29.06 kcal/mol

In case the symmetry of your molecule has not been determined correctly
or in case you have a reason to use a different symmetry number we print

                             ****ORCA TERMINATED NORMALLY****
TOTAL RUN TIME: 0 days 1 hours 39 minutes 23 seconds 565 msec
