                         Program Version 6.0.0  -   RELEASE  -
|  1> !PBE0 def2-SV(p) Opt Freq d3 TightSCF SlowConv RIJCOSX defgrid2
|  2>
|  3> %pal
|  4> nprocs 4
|  5> end
|  6>
|  7> %scf
|  8> MaxIter 1500
|  9> end
| 10>
| 11> %maxcore 3000
| 12>
| 13>
| 14>
| 15> * xyz 1 2
| 16> C     1.5412055   -1.1803027   -0.3277905
| 17> C     2.9173652   -1.1606303   -0.3418265
| 18> C     3.6086195   -0.0034310    0.0083141
| 19> C     2.9036596    1.1514597    0.3466001
| 20> C     1.5280923    1.1507741    0.3382370
| 21> C     0.8077475   -0.0178727    0.0047912
| 22> C    -0.6345265   -0.0096612   -0.0206138
| 23> C    -1.3459520   -1.1637400    0.2383405
| 24> C    -2.8002998   -1.2226248    0.3663459
| 25> C    -3.5108180    0.1219154    0.2928396
| 26> C    -2.8061686    1.0187894   -0.7181841
| 27> C    -1.3674159    1.2643794   -0.2648557
| 28> H    -0.8351268    1.8718620   -0.9992065
| 29> H    -1.3859588    1.8379380    0.6712816
| 30> H    -3.3267581    1.9715357   -0.8079136
| 31> H    -2.8061333    0.5422174   -1.7000062
| 32> H    -4.5559613   -0.0199906    0.0189629
| 33> H    -3.4928813    0.5973594    1.2769244
| 34> H    -3.1485540   -1.8774743   -0.4517965
| 35> H    -3.0741755   -1.7815794    1.2702126
| 36> H    -0.8169844   -2.0902405    0.4110783
| 37> H     0.9962839    2.0406856    0.6337586
| 38> H     3.4407589    2.0444136    0.6257683
| 39> H     4.6874468   -0.0015235    0.0232469
| 40> H     3.4638698   -2.0461101   -0.6276609
| 41> H     1.0263349   -2.0737996   -0.6421723
| 42> *
| 43>
| 44>                          ****END OF INPUT****
 Total Charge           Charge          ....    1
 Multiplicity           Mult            ....    2
 Number of Electrons    NEL             ....   85
Dispersion correction           -0.025999013
FINAL SINGLE POINT ENERGY      -464.527350094195
Dispersion correction             ... done (  0.1 sec)
Dispersion correction           -0.025878053
FINAL SINGLE POINT ENERGY      -464.531081578138
Dispersion correction             ... done (  0.0 sec)
Dispersion correction           -0.025841611
FINAL SINGLE POINT ENERGY      -464.531629188599
Dispersion correction             ... done (  0.1 sec)
FINAL SINGLE POINT ENERGY      -464.531857600828
FINAL SINGLE POINT ENERGY      -464.531906416847
FINAL SINGLE POINT ENERGY      -464.531926490571
Dispersion correction             ... done (  0.0 sec)
Dispersion correction           -0.025822440
FINAL SINGLE POINT ENERGY      -464.531933890930
Dispersion correction             ... done (  0.1 sec)
Dispersion correction           -0.025822824
FINAL SINGLE POINT ENERGY      -464.531936640128
Dispersion correction             ... done (  0.0 sec)
                    ***********************HURRAY********************

CARTESIAN COORDINATES (ANGSTROEM)
---------------------------------
  C      1.564113   -1.239485   -0.104181
  C      2.943682   -1.223993   -0.082229
  C      3.628295   -0.005271    0.035332
  C      2.916907    1.204362    0.121895
  C      1.538374    1.196955    0.083545
  C      0.812703   -0.025816   -0.024711
  C     -0.624561   -0.007743   -0.043646
  C     -1.354699   -1.195592    0.091033
  C     -2.822774   -1.267777    0.169843
  C     -3.521450    0.075424    0.330310
  C     -2.844217    1.119288   -0.543460
  C     -1.377246    1.288645   -0.156846
  H     -0.869418    1.949783   -0.878112
  H     -1.309630    1.803781    0.823589
  H     -3.351556    2.093186   -0.457700
  H     -2.914267    0.822329   -1.606377
  H     -4.587999   -0.025292    0.075210
  H     -3.479782    0.387921    1.389678
  H     -3.149195   -1.776334   -0.768486
  H     -3.102237   -1.997165    0.955566
  H     -0.822922   -2.149955    0.147283
  H      1.001426    2.143811    0.159254
  H      3.457028    2.149581    0.219188
  H      4.722069    0.004549    0.058842
  H      3.501979   -2.160358   -0.158697
  H      1.059050   -2.200483   -0.211450

 Multiplicity           Mult            ....    2
 Number of Electrons    NEL             ....   85
 Basis Dimension        Dim             ....  196

ORBITAL ENERGIES
----------------
                 SPIN UP ORBITALS
  NO   OCC          E(Eh)            E(eV)
   0   1.0000     -10.453193      -284.4458
   1   1.0000     -10.452338      -284.4226
   2   1.0000     -10.438256      -284.0394
   3   1.0000     -10.419915      -283.5403
   4   1.0000     -10.419900      -283.5399
   5   1.0000     -10.414051      -283.3807
   6   1.0000     -10.402793      -283.0744
   7   1.0000     -10.400962      -283.0246
   8   1.0000     -10.392851      -282.8038
   9   1.0000     -10.390122      -282.7296
  10   1.0000     -10.366759      -282.0939
  11   1.0000     -10.365996      -282.0731
  12   1.0000      -1.067904       -29.0591
  13   1.0000      -1.031929       -28.0802
  14   1.0000      -0.965579       -26.2747
  15   1.0000      -0.942269       -25.6404
  16   1.0000      -0.927720       -25.2446
  17   1.0000      -0.905598       -24.6426
  18   1.0000      -0.817407       -22.2428
  19   1.0000      -0.811149       -22.0725
  20   1.0000      -0.773048       -21.0357
  21   1.0000      -0.760587       -20.6966
  22   1.0000      -0.715931       -19.4815
  23   1.0000      -0.693279       -18.8651
  24   1.0000      -0.661357       -17.9965
  25   1.0000      -0.647670       -17.6240
  26   1.0000      -0.636353       -17.3160
  27   1.0000      -0.612646       -16.6709
  28   1.0000      -0.606974       -16.5166
  29   1.0000      -0.602664       -16.3993
  30   1.0000      -0.596321       -16.2267
  31   1.0000      -0.577769       -15.7219
  32   1.0000      -0.574529       -15.6337
  33   1.0000      -0.563053       -15.3215
  34   1.0000      -0.548293       -14.9198
  35   1.0000      -0.533706       -14.5229
  36   1.0000      -0.522797       -14.2260
  37   1.0000      -0.489918       -13.3313
  38   1.0000      -0.485521       -13.2117
  39   1.0000      -0.480903       -13.0860
  40   1.0000      -0.476440       -12.9646
  41   1.0000      -0.440409       -11.9841
  42   1.0000      -0.417786       -11.3685
  43   0.0000      -0.231968        -6.3122
  44   0.0000      -0.169522        -4.6129
  45   0.0000      -0.133880        -3.6431
  46   0.0000      -0.078473        -2.1354
  47   0.0000      -0.058371        -1.5884

                 SPIN DOWN ORBITALS
  NO   OCC          E(Eh)            E(eV)
   0   1.0000     -10.451612      -284.4028
   1   1.0000     -10.445134      -284.2266
   2   1.0000     -10.437042      -284.0063
   3   1.0000     -10.417565      -283.4764
   4   1.0000     -10.415927      -283.4318
   5   1.0000     -10.412553      -283.3400
   6   1.0000     -10.403605      -283.0965
   7   1.0000     -10.402308      -283.0612
   8   1.0000     -10.393054      -282.8094
   9   1.0000     -10.390190      -282.7314
  10   1.0000     -10.366723      -282.0929
  11   1.0000     -10.365964      -282.0722
  12   1.0000      -1.061062       -28.8730
  13   1.0000      -1.024309       -27.8729
  14   1.0000      -0.962103       -26.1801
  15   1.0000      -0.938966       -25.5506
  16   1.0000      -0.923727       -25.1359
  17   1.0000      -0.896786       -24.4028
  18   1.0000      -0.814982       -22.1768
  19   1.0000      -0.806857       -21.9557
  20   1.0000      -0.768363       -20.9082
  21   1.0000      -0.757789       -20.6205
  22   1.0000      -0.713746       -19.4220
  23   1.0000      -0.689234       -18.7550
  24   1.0000      -0.658468       -17.9178
  25   1.0000      -0.645347       -17.5608
  26   1.0000      -0.631860       -17.1938
  27   1.0000      -0.607831       -16.5399
  28   1.0000      -0.606400       -16.5010
  29   1.0000      -0.597751       -16.2656
  30   1.0000      -0.592402       -16.1201
  31   1.0000      -0.575579       -15.6623
  32   1.0000      -0.565249       -15.3812
  33   1.0000      -0.558501       -15.1976
  34   1.0000      -0.536871       -14.6090
  35   1.0000      -0.532501       -14.4901
  36   1.0000      -0.521466       -14.1898
  37   1.0000      -0.488002       -13.2792
  38   1.0000      -0.483503       -13.1568
  39   1.0000      -0.478689       -13.0258
  40   1.0000      -0.453764       -12.3475
  41   1.0000      -0.435830       -11.8595
  42   0.0000      -0.330026        -8.9805
  43   0.0000      -0.199513        -5.4290
  44   0.0000      -0.161118        -4.3842
  45   0.0000      -0.112234        -3.0540
  46   0.0000      -0.076576        -2.0837

MULLIKEN ATOMIC CHARGES AND SPIN POPULATIONS
--------------------------------------------
   0 C :   -0.102268    0.154533
   1 C :   -0.071458   -0.109530
   2 C :   -0.032570    0.278792
   3 C :   -0.058220   -0.068413
   4 C :   -0.117782    0.102842
   5 C :    0.090733    0.074437
   6 C :   -0.038124    0.095958
   7 C :   -0.121181    0.473909
   8 C :   -0.207172   -0.039675
   9 C :   -0.222476    0.003535
  10 C :   -0.212726    0.002801
  11 C :   -0.212442   -0.009634
  12 H :    0.178880    0.004787
  13 H :    0.180087    0.012098
  14 H :    0.162193    0.000411
  15 H :    0.148934   -0.000760
  16 H :    0.166335   -0.000539
  17 H :    0.150458    0.001061
  18 H :    0.195913    0.045663
  19 H :    0.190174    0.021834
  20 H :    0.169404   -0.023211
  21 H :    0.147819   -0.005779
  22 H :    0.155026    0.002033
  23 H :    0.166271   -0.013563
  24 H :    0.153362    0.003851
  25 H :    0.140828   -0.007441
Sum of atomic charges         :    1.0000000

LOEWDIN ATOMIC CHARGES AND SPIN POPULATIONS
-------------------------------------------
   0 C :   -0.058388    0.129434
   1 C :   -0.101908   -0.060569
   2 C :   -0.018781    0.220403
   3 C :   -0.091068   -0.031502
   4 C :   -0.066907    0.092189
   5 C :   -0.004401    0.077565
   6 C :    0.038599    0.104573
   7 C :    0.029619    0.407292
   8 C :   -0.228617    0.004307
   9 C :   -0.227966    0.001756
  10 C :   -0.223959    0.001930
  11 C :   -0.224889    0.000682
  12 H :    0.154559    0.003909
  13 H :    0.163357    0.010262
  14 H :    0.147169    0.000417
  15 H :    0.134350   -0.000463
  16 H :    0.147627   -0.000488
  17 H :    0.137050    0.000903
  18 H :    0.181177    0.039982
  19 H :    0.170202    0.019676
  20 H :    0.153501   -0.011404
  21 H :    0.154968   -0.002918
  22 H :    0.160957    0.000959
  23 H :    0.163221   -0.006716
  24 H :    0.160371    0.001828
  25 H :    0.150157   -0.004010

  Mayer bond orders larger than 0.100000
B(  0-C ,  1-C ) :   1.4868 B(  0-C ,  5-C ) :   1.2271 B(  0-C , 25-H ) :   0.9362
B(  1-C ,  2-C ) :   1.3230 B(  1-C , 24-H ) :   0.9510 B(  2-C ,  3-C ) :   1.3033
B(  2-C , 23-H ) :   0.9500 B(  3-C ,  4-C ) :   1.4815 B(  3-C , 22-H ) :   0.9519
B(  4-C ,  5-C ) :   1.2532 B(  4-C , 21-H ) :   0.9389 B(  5-C ,  6-C ) :   1.2630
B(  6-C ,  7-C ) :   1.4830 B(  6-C , 11-C ) :   1.0781 B(  7-C ,  8-C ) :   1.1103
B(  7-C , 20-H ) :   0.9059 B(  8-C ,  9-C ) :   1.0922 B(  8-C , 18-H ) :   0.8535
B(  8-C , 19-H ) :   0.8847 B(  9-C , 10-C ) :   1.0753 B(  9-C , 16-H ) :   0.9204
B(  9-C , 17-H ) :   0.9267 B( 10-C , 11-C ) :   1.0822 B( 10-C , 14-H ) :   0.9186
B( 10-C , 15-H ) :   0.9316 B( 11-C , 12-H ) :   0.8910 B( 11-C , 13-H ) :   0.8702

Dispersion correction           -0.025823327
FINAL SINGLE POINT ENERGY      -464.531937779881

DIPOLE MOMENT
-------------

Method             : SCF
Type of density    : Electron Density
Multiplicity       :   2
Irrep              :   0
Energy             :  -464.5061144528179398 Eh
Relativity type    :
Basis              : AO
                                X                 Y                 Z
Electronic contribution:      9.486718103      -1.377592828       0.141898363
Nuclear contribution   :     -9.269537752       0.974022475      -0.092780432
                        -----------------------------------------
Total Dipole Moment    :      0.217180351      -0.403570353       0.049117930
                        -----------------------------------------
Magnitude (a.u.)       :      0.460921800
Magnitude (Debye)      :      1.171570109

VIBRATIONAL FREQUENCIES
-----------------------

Scaling factor for frequencies =  1.000000000  (already applied!)

     0:       0.00 cm**-1
     1:       0.00 cm**-1
     2:       0.00 cm**-1
     3:       0.00 cm**-1
     4:       0.00 cm**-1
     5:       0.00 cm**-1
     6:      49.11 cm**-1
     7:      72.83 cm**-1
     8:     142.82 cm**-1
     9:     184.34 cm**-1
    10:     204.27 cm**-1
    11:     287.31 cm**-1
    12:     325.03 cm**-1
    13:     387.12 cm**-1
    14:     392.50 cm**-1
    15:     419.89 cm**-1
    16:     470.96 cm**-1
    17:     517.59 cm**-1
    18:     549.65 cm**-1
    19:     604.02 cm**-1
    20:     645.29 cm**-1
    21:     667.35 cm**-1
    22:     733.74 cm**-1
    23:     759.61 cm**-1
    24:     806.64 cm**-1
    25:     829.71 cm**-1
    26:     867.39 cm**-1
    27:     881.93 cm**-1
    28:     898.11 cm**-1
    29:     952.79 cm**-1
    30:     964.13 cm**-1
    31:     978.25 cm**-1
    32:    1005.12 cm**-1
    33:    1013.50 cm**-1
    34:    1017.87 cm**-1
    35:    1045.03 cm**-1
    36:    1049.78 cm**-1
    37:    1072.48 cm**-1
    38:    1090.34 cm**-1
    39:    1111.80 cm**-1
    40:    1131.73 cm**-1
    41:    1136.99 cm**-1
    42:    1182.26 cm**-1
    43:    1220.98 cm**-1
    44:    1228.63 cm**-1
    45:    1249.94 cm**-1
    46:    1293.63 cm**-1
    47:    1321.85 cm**-1
    48:    1338.14 cm**-1
    49:    1341.49 cm**-1
    50:    1371.32 cm**-1
    51:    1380.66 cm**-1
    52:    1396.16 cm**-1
    53:    1411.44 cm**-1
    54:    1417.99 cm**-1
    55:    1428.16 cm**-1
    56:    1448.04 cm**-1
    57:    1475.75 cm**-1
    58:    1481.75 cm**-1
    59:    1494.52 cm**-1
    60:    1519.83 cm**-1
    61:    1578.31 cm**-1
    62:    1595.32 cm**-1
    63:    1683.58 cm**-1
    64:    2954.31 cm**-1
    65:    3014.61 cm**-1
    66:    3050.30 cm**-1
    67:    3055.01 cm**-1
    68:    3065.46 cm**-1
    69:    3112.05 cm**-1
    70:    3131.12 cm**-1
    71:    3135.51 cm**-1
    72:    3219.10 cm**-1
    73:    3221.60 cm**-1
    74:    3231.02 cm**-1
    75:    3236.75 cm**-1
    76:    3249.17 cm**-1
    77:    3250.51 cm**-1

IR SPECTRUM
-----------

 Mode   freq       eps      Int      T**2         TX        TY        TZ
       cm**-1   L/(mol*cm) km/mol    a.u.
----------------------------------------------------------------------------
  6:     49.11   0.000053    0.27  0.000337  ( 0.006453 -0.001793 -0.017095)
  7:     72.83   0.000022    0.11  0.000093  ( 0.002487  0.001426  0.009206)
  8:    142.82   0.000329    1.66  0.000720  ( 0.005373  0.005408 -0.025719)
  9:    184.34   0.000221    1.12  0.000374  (-0.009023 -0.010798  0.013269)
 10:    204.27   0.000052    0.26  0.000079  ( 0.001783  0.008719  0.000153)
 11:    287.31   0.000219    1.11  0.000238  ( 0.014338  0.003582 -0.004442)
 12:    325.03   0.000252    1.28  0.000242  (-0.014112  0.004026 -0.005192)
 13:    387.12   0.000027    0.14  0.000022  ( 0.003096 -0.000576  0.003410)
 14:    392.50   0.000182    0.92  0.000145  ( 0.002206 -0.006250 -0.010036)
 15:    419.89   0.000498    2.52  0.000370  ( 0.014650  0.001800 -0.012351)
 16:    470.96   0.000134    0.68  0.000089  (-0.006032  0.000020  0.007259)
 17:    517.59   0.000378    1.91  0.000228  (-0.007551  0.002250 -0.012888)
 18:    549.65   0.000229    1.16  0.000130  ( 0.001112  0.009348  0.006433)
 19:    604.02   0.000429    2.17  0.000222  ( 0.009067 -0.011796 -0.000449)
 20:    645.29   0.003548   17.93  0.001716  (-0.039769 -0.011214 -0.002925)
 21:    667.35   0.008246   41.67  0.003856  (-0.009034  0.004738 -0.061252)
 22:    733.74   0.003179   16.07  0.001352  ( 0.014810  0.000440  0.033653)
 23:    759.61   0.004425   22.36  0.001818  ( 0.041857 -0.006017 -0.005445)
 24:    806.64   0.004553   23.01  0.001762  (-0.008585 -0.001164  0.041067)
 25:    829.71   0.000081    0.41  0.000030  (-0.005464  0.000373  0.000608)
 26:    867.39   0.000658    3.32  0.000237  ( 0.008072 -0.011936  0.005380)
 27:    881.93   0.000088    0.44  0.000031  ( 0.004906  0.002496  0.000876)
 28:    898.11   0.000622    3.15  0.000216  ( 0.009088  0.011561  0.000165)
 29:    952.79   0.003090   15.62  0.001012  (-0.028554 -0.011696  0.007744)
 30:    964.13   0.002751   13.90  0.000890  (-0.021675 -0.019186  0.007246)
 31:    978.25   0.000711    3.59  0.000227  ( 0.012193  0.007224  0.005093)
 32:   1005.12   0.002967   14.99  0.000921  ( 0.030297 -0.001671  0.000649)
 33:   1013.50   0.001398    7.06  0.000430  ( 0.019091 -0.000073  0.008117)
 34:   1017.87   0.000114    0.58  0.000035  (-0.005908  0.000373  0.000055)
 35:   1045.03   0.000132    0.67  0.000040  (-0.001484  0.000971 -0.006031)
 36:   1049.78   0.001912    9.66  0.000568  ( 0.023773 -0.000642 -0.001684)
 37:   1072.48   0.005145   26.00  0.001497  ( 0.037374  0.009410 -0.003410)
 38:   1090.34   0.006149   31.08  0.001760  ( 0.034518  0.023800  0.001429)
 39:   1111.80   0.001096    5.54  0.000308  ( 0.013461  0.011206  0.000962)
 40:   1131.73   0.001939    9.80  0.000535  ( 0.011281 -0.020039 -0.002389)
 41:   1136.99   0.001292    6.53  0.000354  (-0.016882 -0.000527 -0.008319)
 42:   1182.26   0.000252    1.27  0.000066  (-0.000315  0.008136  0.000324)
 43:   1220.98   0.004634   23.42  0.001184  (-0.034393 -0.001238  0.000159)
 44:   1228.63   0.000135    0.68  0.000034  ( 0.000826  0.005792  0.000320)
 45:   1249.94   0.001209    6.11  0.000302  ( 0.016897  0.002110 -0.003449)
 46:   1293.63   0.000684    3.46  0.000165  ( 0.004619 -0.004087  0.011270)
 47:   1321.85   0.014047   70.99  0.003316  (-0.054984 -0.017093  0.000910)
 48:   1338.14   0.000460    2.32  0.000107  (-0.006393 -0.008078 -0.001050)
 49:   1341.49   0.022455  113.48  0.005223  (-0.071811 -0.008037 -0.001444)
 50:   1371.32   0.016842   85.11  0.003833  ( 0.054753  0.028744  0.002919)
 51:   1380.66   0.000322    1.63  0.000073  (-0.005152 -0.005789  0.003568)
 52:   1396.16   0.007160   36.19  0.001600  ( 0.039043 -0.008509 -0.001917)
 53:   1411.44   0.005479   27.69  0.001211  (-0.034280  0.005843  0.001491)
 54:   1417.99   0.004146   20.95  0.000912  ( 0.012168 -0.027581 -0.001878)
 55:   1428.16   0.000497    2.51  0.000109  (-0.009805  0.002034  0.002895)
 56:   1448.04   0.005383   27.20  0.001160  ( 0.031898  0.011929 -0.000424)
 57:   1475.75   0.003322   16.79  0.000703  ( 0.009562  0.002808  0.024560)
 58:   1481.75   0.003143   15.89  0.000662  ( 0.024965 -0.004864 -0.003890)
 59:   1494.52   0.006067   30.66  0.001267  ( 0.002622 -0.035495  0.000098)
 60:   1519.83   0.011014   55.66  0.002262  (-0.045489  0.013853  0.000620)
 61:   1578.31   0.063679  321.81  0.012591  (-0.112023 -0.006445  0.000120)
 62:   1595.32   0.001979   10.00  0.000387  (-0.017613  0.008677  0.001298)
 63:   1683.58   0.023399  118.25  0.004337  (-0.065851  0.000276 -0.000844)
 64:   2954.31   0.017335   87.60  0.001831  (-0.042370 -0.005516 -0.002343)
 65:   3014.61   0.004410   22.29  0.000457  ( 0.020657 -0.005311  0.001260)
 66:   3050.30   0.002662   13.45  0.000272  ( 0.015656 -0.001784 -0.004908)
 67:   3055.01   0.001329    6.72  0.000136  ( 0.001653 -0.003449  0.011005)
 68:   3065.46   0.001822    9.21  0.000185  (-0.000195 -0.000496 -0.013609)
 69:   3112.05   0.000162    0.82  0.000016  ( 0.002485  0.002766 -0.001565)
 70:   3131.12   0.000884    4.47  0.000088  ( 0.006440 -0.006179 -0.002913)
 71:   3135.51   0.000855    4.32  0.000085  ( 0.007374  0.002343  0.005019)
 72:   3219.10   0.000250    1.26  0.000024  ( 0.004352  0.002132 -0.000882)
 73:   3221.60   0.000044    0.22  0.000004  (-0.001811 -0.000813  0.000525)
 74:   3231.02   0.000091    0.46  0.000009  (-0.000801  0.002839  0.000296)
 75:   3236.75   0.000237    1.20  0.000023  ( 0.004773 -0.000290  0.000027)
 76:   3249.17   0.000187    0.95  0.000018  (-0.001874 -0.003728 -0.000751)
 77:   3250.51   0.000099    0.50  0.000009  ( 0.001894 -0.002416 -0.000201)

--------------------------
THERMOCHEMISTRY AT 298.15K
--------------------------

Temperature         ...   298.15 K
Pressure            ...     1.00 atm
Total Mass          ...   158.24 AMU
Quasi RRHO          ...     True
Cut-Off Frequency   ...     1.00 cm^-1

Throughout the following assumptions are being made:
  (1) The electronic state is orbitally nondegenerate
      but the spin degeneracy is treated
  (2) There are no thermally accessible electronically excited states
  (3) Hindered rotations indicated by low frequency modes are not
      treated as such but are treated as vibrations and this may
      cause some error
  (4) All equations used are the standard statistical mechanics
      equations for an ideal gas
  (5) All vibrations are strictly harmonic

freq.      49.11  E(vib)   ...       0.53
freq.      72.83  E(vib)   ...       0.49
freq.     142.82  E(vib)   ...       0.41
freq.     184.34  E(vib)   ...       0.37
freq.     204.27  E(vib)   ...       0.35
freq.     287.31  E(vib)   ...       0.27
freq.     325.03  E(vib)   ...       0.24
freq.     387.12  E(vib)   ...       0.20
freq.     392.50  E(vib)   ...       0.20
freq.     419.89  E(vib)   ...       0.18
freq.     470.96  E(vib)   ...       0.15
freq.     517.59  E(vib)   ...       0.13
freq.     549.65  E(vib)   ...       0.12
freq.     604.02  E(vib)   ...       0.10
freq.     645.29  E(vib)   ...       0.09
freq.     667.35  E(vib)   ...       0.08
freq.     733.74  E(vib)   ...       0.06
freq.     759.61  E(vib)   ...       0.06
freq.     806.64  E(vib)   ...       0.05
freq.     829.71  E(vib)   ...       0.04
freq.     867.39  E(vib)   ...       0.04
freq.     881.93  E(vib)   ...       0.04
freq.     898.11  E(vib)   ...       0.03
freq.     952.79  E(vib)   ...       0.03
freq.     964.13  E(vib)   ...       0.03
freq.     978.25  E(vib)   ...       0.03
freq.    1005.12  E(vib)   ...       0.02
freq.    1013.50  E(vib)   ...       0.02
freq.    1017.87  E(vib)   ...       0.02
freq.    1045.03  E(vib)   ...       0.02
freq.    1049.78  E(vib)   ...       0.02
freq.    1072.48  E(vib)   ...       0.02
freq.    1090.34  E(vib)   ...       0.02
freq.    1111.80  E(vib)   ...       0.01
freq.    1131.73  E(vib)   ...       0.01
freq.    1136.99  E(vib)   ...       0.01
freq.    1182.26  E(vib)   ...       0.01
freq.    1220.98  E(vib)   ...       0.01
freq.    1228.63  E(vib)   ...       0.01
freq.    1249.94  E(vib)   ...       0.01
freq.    1293.63  E(vib)   ...       0.01
freq.    1321.85  E(vib)   ...       0.01
freq.    1338.14  E(vib)   ...       0.01
freq.    1341.49  E(vib)   ...       0.01
freq.    1371.32  E(vib)   ...       0.01
freq.    1380.66  E(vib)   ...       0.01
freq.    1396.16  E(vib)   ...       0.00
freq.    1411.44  E(vib)   ...       0.00
freq.    1417.99  E(vib)   ...       0.00
freq.    1428.16  E(vib)   ...       0.00
freq.    1448.04  E(vib)   ...       0.00
freq.    1475.75  E(vib)   ...       0.00
freq.    1481.75  E(vib)   ...       0.00
freq.    1494.52  E(vib)   ...       0.00
freq.    1519.83  E(vib)   ...       0.00
freq.    1578.31  E(vib)   ...       0.00
freq.    1595.32  E(vib)   ...       0.00
freq.    1683.58  E(vib)   ...       0.00
freq.    2954.31  E(vib)   ...       0.00
freq.    3014.61  E(vib)   ...       0.00
freq.    3050.30  E(vib)   ...       0.00
freq.    3055.01  E(vib)   ...       0.00
freq.    3065.46  E(vib)   ...       0.00
freq.    3112.05  E(vib)   ...       0.00
freq.    3131.12  E(vib)   ...       0.00
freq.    3135.51  E(vib)   ...       0.00
freq.    3219.10  E(vib)   ...       0.00
freq.    3221.60  E(vib)   ...       0.00
freq.    3231.02  E(vib)   ...       0.00
freq.    3236.75  E(vib)   ...       0.00
freq.    3249.17  E(vib)   ...       0.00
freq.    3250.51  E(vib)   ...       0.00

------------
INNER ENERGY
------------

The inner energy is: U= E(el) + E(ZPE) + E(vib) + E(rot) + E(trans)
    E(el)   - is the total energy from the electronic structure calculation
              = E(kin-el) + E(nuc-el) + E(el-el) + E(nuc-nuc)
    E(ZPE)  - the the zero temperature vibrational energy from the frequency calculation
    E(vib)  - the the finite temperature correction to E(ZPE) due to population
              of excited vibrational states
    E(rot)  - is the rotational thermal energy
    E(trans)- is the translational thermal energy

Summary of contributions to the inner energy U:
Electronic energy                ...   -464.53193778 Eh
Zero point energy                ...      0.22793817 Eh     143.03 kcal/mol
Thermal vibrational correction   ...      0.00735282 Eh       4.61 kcal/mol
Thermal rotational correction    ...      0.00141627 Eh       0.89 kcal/mol
Thermal translational correction ...      0.00141627 Eh       0.89 kcal/mol
-----------------------------------------------------------------------
Total thermal energy                   -464.29381425 Eh

Summary of corrections to the electronic energy:
(perhaps to be used in another calculation)
Total thermal correction                  0.01018536 Eh       6.39 kcal/mol
Non-thermal (ZPE) correction              0.22793817 Eh     143.03 kcal/mol
-----------------------------------------------------------------------
Total correction                          0.23812353 Eh     149.42 kcal/mol

--------
ENTHALPY
--------

The enthalpy is H = U + kB*T
                kB is Boltzmann's constant
Total thermal energy              ...   -464.29381425 Eh
Thermal Enthalpy correction       ...      0.00094421 Eh       0.59 kcal/mol
-----------------------------------------------------------------------
Total Enthalpy                    ...   -464.29287004 Eh

Note: Only C1 symmetry has been detected, increase convergence thresholds
      if your molecule has a higher symmetry. Symmetry factor of 1.0 is
      used for the rotational entropy correction.

Note: Rotational entropy computed according to Herzberg
Infrared and Raman Spectra, Chapter V,1, Van Nostrand Reinhold, 1945
Point Group:  C1, Symmetry Number:   1
Rotational constants in cm-1:     0.084417     0.017556     0.014881

Vibrational entropy computed according to the QRRHO of S. Grimme
Chem.Eur.J. 2012 18 9955 using a reference frequency of 100.0 cm-1

-------
ENTROPY
-------

The entropy contributions are T*S = T*(S(el)+S(vib)+S(rot)+S(trans))
     S(el)   - electronic entropy
     S(vib)  - vibrational entropy
     S(rot)  - rotational entropy
     S(trans)- translational entropy
The entropies will be listed as multiplied by the temperature to get
units of energy

                             ****ORCA TERMINATED NORMALLY****
TOTAL RUN TIME: 0 days 0 hours 17 minutes 59 seconds 637 msec
