                         Program Version 6.0.0  -   RELEASE  -
|  1> !r2SCAN freq aug-cc-pVTZ d3 TightSCF SlowConv RIJCOSX defgrid2
|  2>
|  3> %pal
|  4> nprocs 12
|  5> end
|  6>
|  7> %scf
|  8> MaxIter 1500
|  9> end
| 10>
| 11> %maxcore 5000
| 12>
| 13> !CPCM
| 14> %cpcm smd true
| 15> SMDsolvent "MeCN"
| 16> surfacetype gepol_ses
| 17> rsolv 2.19
| 18> end
| 19>
| 20> * xyz 0 1
| 21> C           0.93942428661502     -1.26810109774645     -0.00015157932141
| 22> C           2.30872559857588     -1.03109154021365     -0.00058788714425
| 23> C           2.78910711744814      0.27359223675244     -0.00036843406844
| 24> C           1.89189712201250      1.34223004856964      0.00043890002790
| 25> C           0.52593880299877      1.11157479884994      0.00080976491356
| 26> C           0.03225431386771     -0.20173839077500      0.00038300937010
| 27> C          -1.39152501210631     -0.50779847232216      0.00060976146895
| 28> N          -2.27416444444970      0.41751576691135     -0.00156892313612
| 29> O          -3.56896224991841     -0.12197444677375     -0.00051396676830
| 30> H          -4.13025402339185      0.66727999414558     -0.00182655056489
| 31> H          -1.69102647224433     -1.55687353354248      0.00291603981801
| 32> H          -0.16764560601252      1.94324255282134      0.00160227312758
| 33> H           2.26416810760325      2.36004117007354      0.00024768271711
| 34> H           3.85634926541052      0.46077285425924     -0.00095342297794
| 35> H           2.99960613475906     -1.86581135846164     -0.00104625435386
| 36> H           0.56380145883230     -2.28545888254797      0.00021698689200
| 37> *
| 38>
| 39>                          ****END OF INPUT****

CARTESIAN COORDINATES (ANGSTROEM)
---------------------------------
  C      0.939424   -1.268101   -0.000152
  C      2.308726   -1.031092   -0.000588
  C      2.789107    0.273592   -0.000368
  C      1.891897    1.342230    0.000439
  C      0.525939    1.111575    0.000810
  C      0.032254   -0.201738    0.000383
  C     -1.391525   -0.507798    0.000610
  N     -2.274164    0.417516   -0.001569
  O     -3.568962   -0.121974   -0.000514
  H     -4.130254    0.667280   -0.001827
  H     -1.691026   -1.556874    0.002916
  H     -0.167646    1.943243    0.001602
  H      2.264168    2.360041    0.000248
  H      3.856349    0.460773   -0.000953
  H      2.999606   -1.865811   -0.001046
  H      0.563801   -2.285459    0.000217

 Total Charge           Charge          ....    0
 Multiplicity           Mult            ....    1
 Number of Electrons    NEL             ....   64
 Basis Dimension        Dim             ....  575

ORBITAL ENERGIES
----------------

  NO   OCC          E(Eh)            E(eV)
   0   2.0000     -19.003859      -517.1213
   1   2.0000     -14.218908      -386.9162
   2   2.0000     -10.073985      -274.1271
   3   2.0000     -10.058612      -273.7087
   4   2.0000     -10.044771      -273.3321
   5   2.0000     -10.043242      -273.2905
   6   2.0000     -10.042611      -273.2733
   7   2.0000     -10.042173      -273.2614
   8   2.0000     -10.041872      -273.2532
   9   2.0000      -1.051812       -28.6213
  10   2.0000      -0.851233       -23.1632
  11   2.0000      -0.817660       -22.2497
  12   2.0000      -0.726364       -19.7654
  13   2.0000      -0.718957       -19.5638
  14   2.0000      -0.610272       -16.6064
  15   2.0000      -0.579898       -15.7798
  16   2.0000      -0.537550       -14.6275
  17   2.0000      -0.500624       -13.6227
  18   2.0000      -0.481495       -13.1021
  19   2.0000      -0.438412       -11.9298
  20   2.0000      -0.424749       -11.5580
  21   2.0000      -0.405192       -11.0258
  22   2.0000      -0.393844       -10.7170
  23   2.0000      -0.390686       -10.6311
  24   2.0000      -0.381718       -10.3871
  25   2.0000      -0.353824        -9.6280
  26   2.0000      -0.320498        -8.7212
  27   2.0000      -0.312586        -8.5059
  28   2.0000      -0.278628        -7.5819
  29   2.0000      -0.259113        -7.0508
  30   2.0000      -0.245123        -6.6701
  31   2.0000      -0.215733        -5.8704
  32   0.0000      -0.079269        -2.1570
  33   0.0000      -0.040224        -1.0946
  34   0.0000       0.007180         0.1954
  35   0.0000       0.008127         0.2211
  36   0.0000       0.013919         0.3788

MULLIKEN ATOMIC CHARGES
-----------------------
   0 C :   -1.017219
   1 C :   -0.550724
   2 C :   -0.166551
   3 C :   -0.687218
   4 C :   -0.719920
   5 C :    1.955195
   6 C :   -0.000886
   7 N :   -0.492226
   8 O :   -0.310739
   9 H :    0.175611
  10 H :    0.431104
  11 H :   -0.001544
  12 H :    0.516930
  13 H :    0.418081
  14 H :    0.506391
  15 H :   -0.056286
Sum of atomic charges:   -0.0000000

LOEWDIN ATOMIC CHARGES
----------------------
   0 C :    0.201675
   1 C :    0.200792
   2 C :    0.197725
   3 C :    0.198971
   4 C :    0.196730
   5 C :   -0.177852
   6 C :   -0.027387
   7 N :    0.139403
   8 O :    0.668355
   9 H :   -0.519213
  10 H :   -0.184512
  11 H :   -0.190458
  12 H :   -0.176736
  13 H :   -0.177576
  14 H :   -0.176608
  15 H :   -0.173310

  Mayer bond orders larger than 0.100000
B(  0-C ,  1-C ) :   1.0727 B(  0-C ,  2-C ) :  -0.1272 B(  0-C ,  4-C ) :  -0.4583
B(  0-C ,  6-C ) :   0.1099 B(  0-C , 11-H ) :   0.1431 B(  0-C , 13-H ) :   0.1015
B(  0-C , 14-H ) :  -0.1955 B(  0-C , 15-H ) :   1.7704 B(  1-C ,  2-C ) :   1.1374
B(  1-C ,  3-C ) :   0.1252 B(  1-C ,  5-C ) :   0.1065 B(  1-C , 11-H ) :  -0.1085
B(  1-C , 14-H ) :   0.5531 B(  1-C , 15-H ) :  -0.1627 B(  2-C ,  3-C ) :   1.0761
B(  2-C ,  4-C ) :  -0.1392 B(  2-C ,  5-C ) :  -0.1502 B(  2-C ,  6-C ) :   0.1321
B(  2-C , 13-H ) :   0.6927 B(  3-C ,  4-C ) :   1.0890 B(  3-C ,  5-C ) :   0.1297
B(  3-C , 12-H ) :   0.5130 B(  3-C , 15-H ) :  -0.1155 B(  4-C ,  5-C ) :   0.3140
B(  4-C ,  6-C ) :   0.2313 B(  4-C , 11-H ) :   1.3562 B(  4-C , 12-H ) :  -0.1188
B(  4-C , 15-H ) :   0.1423 B(  5-C ,  7-N ) :  -0.1024 B(  5-C , 11-H ) :  -0.2064
B(  5-C , 14-H ) :   0.1314 B(  5-C , 15-H ) :  -0.2995 B(  6-C ,  7-N ) :   1.0363
B(  6-C , 10-H ) :   0.5871 B(  6-C , 15-H ) :  -0.1284 B(  7-N ,  8-O ) :   0.6902
B(  7-N , 11-H ) :   0.1052 B(  8-O ,  9-H ) :   0.9997 B( 11-H , 15-H ) :   0.1808

Dispersion correction           -0.004686430
FINAL SINGLE POINT ENERGY      -400.820091895286

DIPOLE MOMENT
-------------

Method             : SCF
Type of density    : Electron Density
Multiplicity       :   1
Irrep              :   0
Energy             :  -400.8154054657144343 Eh
Relativity type    :
Basis              : AO
                                X                 Y                 Z
Electronic contribution:     -2.988703506       0.153208850      -0.000992239
Nuclear contribution   :      3.401340621      -0.272172150       0.001907427
                        -----------------------------------------
Total Dipole Moment    :      0.412637115      -0.118963300       0.000915188
                        -----------------------------------------
Magnitude (a.u.)       :      0.429444400
Magnitude (Debye)      :      1.091560918

VIBRATIONAL FREQUENCIES
-----------------------

Scaling factor for frequencies =  1.000000000  (already applied!)

     0:       0.00 cm**-1
     1:       0.00 cm**-1
     2:       0.00 cm**-1
     3:       0.00 cm**-1
     4:       0.00 cm**-1
     5:       0.00 cm**-1
     6:      59.07 cm**-1
     7:     142.16 cm**-1
     8:     155.25 cm**-1
     9:     304.92 cm**-1
    10:     377.23 cm**-1
    11:     403.93 cm**-1
    12:     418.65 cm**-1
    13:     442.07 cm**-1
    14:     518.91 cm**-1
    15:     627.62 cm**-1
    16:     652.54 cm**-1
    17:     700.59 cm**-1
    18:     771.19 cm**-1
    19:     854.98 cm**-1
    20:     880.24 cm**-1
    21:     930.95 cm**-1
    22:     958.99 cm**-1
    23:     971.50 cm**-1
    24:     992.21 cm**-1
    25:    1010.19 cm**-1
    26:    1015.18 cm**-1
    27:    1044.56 cm**-1
    28:    1098.02 cm**-1
    29:    1163.85 cm**-1
    30:    1182.59 cm**-1
    31:    1235.65 cm**-1
    32:    1287.03 cm**-1
    33:    1338.21 cm**-1
    34:    1368.50 cm**-1
    35:    1435.18 cm**-1
    36:    1471.21 cm**-1
    37:    1520.60 cm**-1
    38:    1605.84 cm**-1
    39:    1630.75 cm**-1
    40:    1665.00 cm**-1
    41:    3089.41 cm**-1
    42:    3160.02 cm**-1
    43:    3165.67 cm**-1
    44:    3175.17 cm**-1
    45:    3184.87 cm**-1
    46:    3190.69 cm**-1
    47:    3692.06 cm**-1

IR SPECTRUM
-----------

 Mode   freq       eps      Int      T**2         TX        TY        TZ
       cm**-1   L/(mol*cm) km/mol    a.u.
----------------------------------------------------------------------------
  6:     59.07   0.000001    0.00  0.000005  (-0.000324  0.000276  0.002191)
  7:    142.16   0.000427    2.16  0.000938  ( 0.002210 -0.000864 -0.030529)
  8:    155.25   0.000770    3.89  0.001547  (-0.037488  0.010882 -0.004830)
  9:    304.92   0.000120    0.61  0.000123  (-0.000348  0.000041  0.011067)
 10:    377.23   0.000623    3.15  0.000515  (-0.019735 -0.007912  0.007963)
 11:    403.93   0.003148   15.91  0.002432  ( 0.000099 -0.000376  0.049316)
 12:    418.65   0.034019  171.92  0.025358  (-0.001277  0.000889 -0.159236)
 13:    442.07   0.001577    7.97  0.001113  ( 0.027212 -0.008070 -0.017532)
 14:    518.91   0.003029   15.31  0.001822  (-0.000163  0.000283 -0.042678)
 15:    627.62   0.000008    0.04  0.000004  (-0.001908 -0.000604 -0.000036)
 16:    652.54   0.013808   69.78  0.006603  (-0.080816 -0.008446 -0.000784)
 17:    700.59   0.016409   82.92  0.007309  (-0.000046 -0.000324  0.085492)
 18:    771.19   0.012771   64.54  0.005168  ( 0.000119 -0.000117  0.071888)
 19:    854.98   0.000000    0.00  0.000000  (-0.000171 -0.000079 -0.000001)
 20:    880.24   0.017605   88.97  0.006241  ( 0.078747  0.006335  0.000464)
 21:    930.95   0.000032    0.16  0.000011  (-0.000681  0.000333 -0.003168)
 22:    958.99   0.066966  338.42  0.021791  (-0.144730  0.029056 -0.000448)
 23:    971.50   0.005521   27.90  0.001773  (-0.000997 -0.000237  0.042098)
 24:    992.21   0.000017    0.08  0.000005  (-0.000081 -0.000425  0.002247)
 25:   1010.19   0.000110    0.56  0.000034  (-0.000241  0.000048  0.005827)
 26:   1015.18   0.000008    0.04  0.000003  (-0.000009  0.001605 -0.000046)
 27:   1044.56   0.001047    5.29  0.000313  ( 0.017136  0.004358 -0.000085)
 28:   1098.02   0.002669   13.49  0.000759  (-0.008742 -0.026117 -0.000048)
 29:   1163.85   0.000062    0.31  0.000017  (-0.003950  0.001037 -0.000035)
 30:   1182.59   0.000109    0.55  0.000029  ( 0.005333 -0.000510  0.000028)
 31:   1235.65   0.007646   38.64  0.001931  ( 0.043803 -0.003491  0.000050)
 32:   1287.03   0.020706  104.64  0.005021  ( 0.061471  0.035238  0.000493)
 33:   1338.21   0.000032    0.16  0.000008  ( 0.002675  0.000613 -0.000046)
 34:   1368.50   0.000166    0.84  0.000038  (-0.001768  0.005901  0.000060)
 35:   1435.18   0.001731    8.75  0.000376  (-0.019390  0.000550 -0.000316)
 36:   1471.21   0.002986   15.09  0.000633  (-0.006696 -0.024260 -0.000086)
 37:   1520.60   0.002788   14.09  0.000572  ( 0.023901  0.000976  0.000060)
 38:   1605.84   0.000246    1.24  0.000048  ( 0.003753 -0.005811  0.000009)
 39:   1630.75   0.000049    0.25  0.000009  ( 0.001670 -0.002562 -0.000008)
 40:   1665.00   0.000073    0.37  0.000014  (-0.001233  0.003497 -0.000073)
 41:   3089.41   0.006546   33.08  0.000661  ( 0.015911  0.020200  0.000081)
 42:   3160.02   0.001520    7.68  0.000150  (-0.008872 -0.008448 -0.000104)
 43:   3165.67   0.000174    0.88  0.000017  (-0.004142  0.000070  0.000008)
 44:   3175.17   0.005116   25.85  0.000503  ( 0.009187  0.020454  0.000112)
 45:   3184.87   0.006508   32.89  0.000638  ( 0.016602 -0.019026 -0.000023)
 46:   3190.69   0.003341   16.88  0.000327  (-0.016192 -0.008036 -0.000032)
 47:   3692.06   0.073004  368.93  0.006171  (-0.069846  0.035946 -0.000073)

--------------------------
THERMOCHEMISTRY AT 298.15K
--------------------------

Temperature         ...   298.15 K
Pressure            ...     1.00 atm
Total Mass          ...   121.14 AMU
Quasi RRHO          ...     True
Cut-Off Frequency   ...     1.00 cm^-1

Throughout the following assumptions are being made:
  (1) The electronic state is orbitally nondegenerate
  (2) There are no thermally accessible electronically excited states
  (3) Hindered rotations indicated by low frequency modes are not
      treated as such but are treated as vibrations and this may
      cause some error
  (4) All equations used are the standard statistical mechanics
      equations for an ideal gas
  (5) All vibrations are strictly harmonic

freq.      59.07  E(vib)   ...       0.51
freq.     142.16  E(vib)   ...       0.41
freq.     155.25  E(vib)   ...       0.40
freq.     304.92  E(vib)   ...       0.26
freq.     377.23  E(vib)   ...       0.21
freq.     403.93  E(vib)   ...       0.19
freq.     418.65  E(vib)   ...       0.18
freq.     442.07  E(vib)   ...       0.17
freq.     518.91  E(vib)   ...       0.13
freq.     627.62  E(vib)   ...       0.09
freq.     652.54  E(vib)   ...       0.08
freq.     700.59  E(vib)   ...       0.07
freq.     771.19  E(vib)   ...       0.05
freq.     854.98  E(vib)   ...       0.04
freq.     880.24  E(vib)   ...       0.04
freq.     930.95  E(vib)   ...       0.03
freq.     958.99  E(vib)   ...       0.03
freq.     971.50  E(vib)   ...       0.03
freq.     992.21  E(vib)   ...       0.02
freq.    1010.19  E(vib)   ...       0.02
freq.    1015.18  E(vib)   ...       0.02
freq.    1044.56  E(vib)   ...       0.02
freq.    1098.02  E(vib)   ...       0.02
freq.    1163.85  E(vib)   ...       0.01
freq.    1182.59  E(vib)   ...       0.01
freq.    1235.65  E(vib)   ...       0.01
freq.    1287.03  E(vib)   ...       0.01
freq.    1338.21  E(vib)   ...       0.01
freq.    1368.50  E(vib)   ...       0.01
freq.    1435.18  E(vib)   ...       0.00
freq.    1471.21  E(vib)   ...       0.00
freq.    1520.60  E(vib)   ...       0.00
freq.    1605.84  E(vib)   ...       0.00
freq.    1630.75  E(vib)   ...       0.00
freq.    1665.00  E(vib)   ...       0.00
freq.    3089.41  E(vib)   ...       0.00
freq.    3160.02  E(vib)   ...       0.00
freq.    3165.67  E(vib)   ...       0.00
freq.    3175.17  E(vib)   ...       0.00
freq.    3184.87  E(vib)   ...       0.00
freq.    3190.69  E(vib)   ...       0.00
freq.    3692.06  E(vib)   ...       0.00

------------
INNER ENERGY
------------

The inner energy is: U= E(el) + E(ZPE) + E(vib) + E(rot) + E(trans)
    E(el)   - is the total energy from the electronic structure calculation
              = E(kin-el) + E(nuc-el) + E(el-el) + E(nuc-nuc)
    E(ZPE)  - the the zero temperature vibrational energy from the frequency calculation
    E(vib)  - the the finite temperature correction to E(ZPE) due to population
              of excited vibrational states
    E(rot)  - is the rotational thermal energy
    E(trans)- is the translational thermal energy

Summary of contributions to the inner energy U:
Electronic energy                ...   -400.82009190 Eh
Zero point energy                ...      0.12505606 Eh      78.47 kcal/mol
Thermal vibrational correction   ...      0.00493560 Eh       3.10 kcal/mol
Thermal rotational correction    ...      0.00141627 Eh       0.89 kcal/mol
Thermal translational correction ...      0.00141627 Eh       0.89 kcal/mol
-----------------------------------------------------------------------
Total thermal energy                   -400.68726769 Eh

Summary of corrections to the electronic energy:
(perhaps to be used in another calculation)
Total thermal correction                  0.00776814 Eh       4.87 kcal/mol
Non-thermal (ZPE) correction              0.12505606 Eh      78.47 kcal/mol
-----------------------------------------------------------------------
Total correction                          0.13282421 Eh      83.35 kcal/mol

--------
ENTHALPY
--------

The enthalpy is H = U + kB*T
                kB is Boltzmann's constant
Total thermal energy              ...   -400.68726769 Eh
Thermal Enthalpy correction       ...      0.00094421 Eh       0.59 kcal/mol
-----------------------------------------------------------------------
Total Enthalpy                    ...   -400.68632348 Eh

Note: Only C1 symmetry has been detected, increase convergence thresholds
      if your molecule has a higher symmetry. Symmetry factor of 1.0 is
      used for the rotational entropy correction.

Note: Rotational entropy computed according to Herzberg
Infrared and Raman Spectra, Chapter V,1, Van Nostrand Reinhold, 1945
Point Group:  C1, Symmetry Number:   1
Rotational constants in cm-1:     0.173860     0.029911     0.025521

Vibrational entropy computed according to the QRRHO of S. Grimme
Chem.Eur.J. 2012 18 9955 using a reference frequency of 100.0 cm-1

-------
ENTROPY
-------

The entropy contributions are T*S = T*(S(el)+S(vib)+S(rot)+S(trans))
     S(el)   - electronic entropy
     S(vib)  - vibrational entropy
     S(rot)  - rotational entropy
     S(trans)- translational entropy
The entropies will be listed as multiplied by the temperature to get
units of energy

Electronic entropy                ...      0.00000000 Eh      0.00 kcal/mol
Vibrational entropy               ...      0.00815944 Eh      5.12 kcal/mol
Rotational entropy                ...      0.01372530 Eh      8.61 kcal/mol
Translational entropy             ...      0.01914284 Eh     12.01 kcal/mol
-----------------------------------------------------------------------
Final entropy term                ...      0.04102758 Eh     25.75 kcal/mol

In case the symmetry of your molecule has not been determined correctly
or in case you have a reason to use a different symmetry number we print
out the resulting rotational entropy values for sn=1,12:

 non-linear molecules -----------------------------------
|  sn= 1 | S(rot)=       0.01372530 Eh      8.61 kcal/mol|
|  sn= 2 | S(rot)=       0.01307085 Eh      8.20 kcal/mol|
|  sn= 3 | S(rot)=       0.01268801 Eh      7.96 kcal/mol|
|  sn= 4 | S(rot)=       0.01241639 Eh      7.79 kcal/mol|
|  sn= 5 | S(rot)=       0.01220570 Eh      7.66 kcal/mol|
|  sn= 6 | S(rot)=       0.01203356 Eh      7.55 kcal/mol|
|  sn= 7 | S(rot)=       0.01188801 Eh      7.46 kcal/mol|
|  sn= 8 | S(rot)=       0.01176193 Eh      7.38 kcal/mol|
|  sn= 9 | S(rot)=       0.01165072 Eh      7.31 kcal/mol|
|  sn=10 | S(rot)=       0.01155124 Eh      7.25 kcal/mol|
|  sn=11 | S(rot)=       0.01146125 Eh      7.19 kcal/mol|
|  sn=12 | S(rot)=       0.01137910 Eh      7.14 kcal/mol|
 linear molecules ---------------------------------------
|  Dinfh | S(rot)=       0.00878932 Eh      5.52 kcal/mol|
|  Cinfv | S(rot)=       0.00944377 Eh      5.93 kcal/mol|
 --------------------------------------------------------

                             ****ORCA TERMINATED NORMALLY****
TOTAL RUN TIME: 0 days 0 hours 15 minutes 44 seconds 607 msec
