                         Program Version 6.0.0  -   RELEASE  -
|  1> !r2SCAN freq aug-cc-pVTZ d3 TightSCF SlowConv RIJCOSX defgrid2
|  2>
|  3> %pal
|  4> nprocs 12
|  5> end
|  6>
|  7> %scf
|  8> MaxIter 1500
|  9> end
| 10>
| 11> %maxcore 5000
| 12>
| 13> !CPCM
| 14> %cpcm smd true
| 15> SMDsolvent "MeCN"
| 16> surfacetype gepol_ses
| 17> rsolv 2.19
| 18> end
| 19>
| 20> * xyz 1 2
| 21> C           0.87074173150924     -1.42521117009038     -0.00077633354437
| 22> C           2.10038413544098     -0.72361553515306      0.00059400959819
| 23> C           2.17109107208912      0.67897874793942     -0.00018819116619
| 24> C           1.02743704324914      1.44703287807426     -0.00113389418009
| 25> C          -0.22145384293133      0.77159194041753     -0.00143498082550
| 26> C          -0.23957255843211     -0.64416544623900     -0.00226080613127
| 27> O          -1.55446536386289     -1.08929008959254     -0.00245387903863
| 28> C          -2.31268133102755      0.00255266905010     -0.00011771057880
| 29> C          -1.55281612555641      1.18100325403041      0.00030968819915
| 30> H          -1.95478062194049      2.18141710818445      0.00296404553735
| 31> H          -3.38114379147553     -0.15000770782054      0.00229844195648
| 32> H           1.06536464609561      2.52803266004670     -0.00170875987452
| 33> H           3.14227279138779      1.15449472874872      0.00057557089407
| 34> H           3.01743172735386     -1.29834737417914      0.00317713559608
| 35> H           0.83125198810059     -2.50550606341691      0.00022626355806
| 36> *
| 37>
| 38>                          ****END OF INPUT****

CARTESIAN COORDINATES (ANGSTROEM)
---------------------------------
  C      0.870742   -1.425211   -0.000776
  C      2.100384   -0.723616    0.000594
  C      2.171091    0.678979   -0.000188
  C      1.027437    1.447033   -0.001134
  C     -0.221454    0.771592   -0.001435
  C     -0.239573   -0.644165   -0.002261
  O     -1.554465   -1.089290   -0.002454
  C     -2.312681    0.002553   -0.000118
  C     -1.552816    1.181003    0.000310
  H     -1.954781    2.181417    0.002964
  H     -3.381144   -0.150008    0.002298
  H      1.065365    2.528033   -0.001709
  H      3.142273    1.154495    0.000576
  H      3.017432   -1.298347    0.003177
  H      0.831252   -2.505506    0.000226

 Total Charge           Charge          ....    1
 Multiplicity           Mult            ....    2
 Number of Electrons    NEL             ....   61
 Basis Dimension        Dim             ....  552

ORBITAL ENERGIES
----------------
                 SPIN UP ORBITALS
  NO   OCC          E(Eh)            E(eV)
   0   1.0000     -19.083067      -519.2766
   1   1.0000     -10.172941      -276.8198
   2   1.0000     -10.146576      -276.1024
   3   1.0000     -10.105367      -274.9810
   4   1.0000     -10.102516      -274.9034
   5   1.0000     -10.100356      -274.8447
   6   1.0000     -10.094369      -274.6817
   7   1.0000     -10.089870      -274.5593
   8   1.0000     -10.070910      -274.0434
   9   1.0000      -1.140222       -31.0270
  10   1.0000      -0.877301       -23.8726
  11   1.0000      -0.823793       -22.4165
  12   1.0000      -0.769575       -20.9412
  13   1.0000      -0.746345       -20.3091
  14   1.0000      -0.651316       -17.7232
  15   1.0000      -0.615959       -16.7611
  16   1.0000      -0.601287       -16.3618
  17   1.0000      -0.532245       -14.4831
  18   1.0000      -0.511276       -13.9125
  19   1.0000      -0.489988       -13.3333
  20   1.0000      -0.486811       -13.2468
  21   1.0000      -0.448784       -12.2120
  22   1.0000      -0.436254       -11.8711
  23   1.0000      -0.423469       -11.5232
  24   1.0000      -0.397788       -10.8244
  25   1.0000      -0.383332       -10.4310
  26   1.0000      -0.370363       -10.0781
  27   1.0000      -0.351839        -9.5740
  28   1.0000      -0.332834        -9.0569
  29   1.0000      -0.276537        -7.5250
  30   1.0000      -0.262585        -7.1453
  31   0.0000      -0.111882        -3.0445
  32   0.0000      -0.062006        -1.6873
  33   0.0000      -0.036683        -0.9982
  34   0.0000       0.005841         0.1589
  35   0.0000       0.018353         0.4994

                 SPIN DOWN ORBITALS
  NO   OCC          E(Eh)            E(eV)
   0   1.0000     -19.082379      -519.2579
   1   1.0000     -10.166823      -276.6533
   2   1.0000     -10.144824      -276.0547
   3   1.0000     -10.102600      -274.9057
   4   1.0000     -10.102065      -274.8912
   5   1.0000     -10.094877      -274.6956
   6   1.0000     -10.090333      -274.5719
   7   1.0000     -10.090243      -274.5695
   8   1.0000     -10.073070      -274.1022
   9   1.0000      -1.136948       -30.9379
  10   1.0000      -0.871888       -23.7253
  11   1.0000      -0.814872       -22.1738
  12   1.0000      -0.766265       -20.8511
  13   1.0000      -0.731934       -19.9169
  14   1.0000      -0.646506       -17.5923
  15   1.0000      -0.610343       -16.6083
  16   1.0000      -0.596180       -16.2229
  17   1.0000      -0.530353       -14.4316
  18   1.0000      -0.506987       -13.7958
  19   1.0000      -0.484954       -13.1963
  20   1.0000      -0.474801       -12.9200
  21   1.0000      -0.447571       -12.1790
  22   1.0000      -0.433942       -11.8082
  23   1.0000      -0.422022       -11.4838
  24   1.0000      -0.395362       -10.7584
  25   1.0000      -0.369016       -10.0414
  26   1.0000      -0.367817       -10.0088
  27   1.0000      -0.350652        -9.5417
  28   1.0000      -0.310342        -8.4448
  29   1.0000      -0.270109        -7.3500
  30   0.0000      -0.220993        -6.0135
  31   0.0000      -0.078285        -2.1303
  32   0.0000      -0.050141        -1.3644
  33   0.0000      -0.010096        -0.2747
  34   0.0000       0.007618         0.2073

MULLIKEN ATOMIC CHARGES AND SPIN POPULATIONS
--------------------------------------------
   0 C :   -0.843445   -0.017055
   1 C :   -0.105070    0.299379
   2 C :   -0.568833   -0.161918
   3 C :   -0.495000    0.242280
   4 C :    1.131228   -0.021383
   5 C :    0.400213    0.110129
   6 O :   -0.479307    0.012571
   7 C :   -0.373089    0.268443
   8 C :   -0.525242    0.198977
   9 H :    0.421942   -0.004170
  10 H :    0.622362    0.017941
  11 H :    0.170156    0.027678
  12 H :    0.640118    0.001410
  13 H :    0.382859    0.024827
  14 H :    0.621109    0.000892
Sum of atomic charges         :    1.0000000

LOEWDIN ATOMIC CHARGES AND SPIN POPULATIONS
-------------------------------------------
   0 C :    0.306485    0.050099
   1 C :    0.281984    0.151855
   2 C :    0.260205    0.018442
   3 C :    0.302084    0.111515
   4 C :   -0.105278    0.079713
   5 C :   -0.320073    0.057100
   6 O :    0.669993    0.057142
   7 C :    0.110881    0.216998
   8 C :    0.346020    0.149801
   9 H :   -0.130513    0.020852
  10 H :   -0.130432    0.037413
  11 H :   -0.140766    0.023793
  12 H :   -0.162118   -0.011196
  13 H :   -0.146209    0.036082
  14 H :   -0.142263    0.000393

  Mayer bond orders larger than 0.100000
B(  0-C ,  1-C ) :   1.0514 B(  0-C ,  2-C ) :   0.3919 B(  0-C ,  4-C ) :   0.1183
B(  0-C ,  5-C ) :   1.2370 B(  0-C , 13-H ) :   0.1081 B(  1-C ,  2-C ) :   1.0723
B(  1-C ,  3-C ) :  -0.3578 B(  1-C ,  5-C ) :  -0.6861 B(  1-C ,  7-C ) :   0.1159
B(  1-C ,  8-C ) :   0.1145 B(  1-C , 12-H ) :   0.1541 B(  1-C , 13-H ) :   0.7609
B(  1-C , 14-H ) :   0.1521 B(  2-C ,  3-C ) :   1.1031 B(  2-C ,  5-C ) :   0.1023
B(  2-C ,  8-C ) :   0.2075 B(  2-C , 12-H ) :   0.1975 B(  3-C ,  4-C ) :   0.6625
B(  3-C ,  5-C ) :  -0.7206 B(  3-C ,  9-H ) :   0.1377 B(  3-C , 11-H ) :   1.2786
B(  3-C , 14-H ) :   0.1054 B(  4-C ,  5-C ) :   1.2189 B(  4-C ,  7-C ) :  -0.3606
B(  4-C ,  8-C ) :   0.5959 B(  4-C , 13-H ) :  -0.1189 B(  5-C ,  6-O ) :   0.4816
B(  5-C ,  8-C ) :   0.2819 B(  5-C , 11-H ) :   0.1611 B(  5-C , 13-H ) :   0.1165
B(  6-O ,  7-C ) :   1.3280 B(  7-C ,  8-C ) :   0.8944 B(  7-C , 10-H ) :   0.4833
B(  8-C ,  9-H ) :   0.7321 B(  8-C , 11-H ) :  -0.1093

Dispersion correction           -0.004584212
FINAL SINGLE POINT ENERGY      -383.398208570300

DIPOLE MOMENT
-------------

Method             : SCF
Type of density    : Electron Density
Multiplicity       :   2
Irrep              :   0
Energy             :  -383.3936243586068144 Eh
Relativity type    :
Basis              : AO
                                X                 Y                 Z
Electronic contribution:     -2.992005069      -1.159887233      -0.007623228
Nuclear contribution   :      2.528739876       1.777319044       0.011417386
                        -----------------------------------------
Total Dipole Moment    :     -0.463265194       0.617431810       0.003794158
                        -----------------------------------------
Magnitude (a.u.)       :      0.771913904
Magnitude (Debye)      :      1.962049218

VIBRATIONAL FREQUENCIES
-----------------------

Scaling factor for frequencies =  1.000000000  (already applied!)

     0:       0.00 cm**-1
     1:       0.00 cm**-1
     2:       0.00 cm**-1
     3:       0.00 cm**-1
     4:       0.00 cm**-1
     5:       0.00 cm**-1
     6:     177.63 cm**-1
     7:     226.61 cm**-1
     8:     381.75 cm**-1
     9:     402.36 cm**-1
    10:     484.18 cm**-1
    11:     516.06 cm**-1
    12:     535.84 cm**-1
    13:     614.67 cm**-1
    14:     713.03 cm**-1
    15:     764.80 cm**-1
    16:     766.36 cm**-1
    17:     804.71 cm**-1
    18:     859.73 cm**-1
    19:     868.63 cm**-1
    20:     887.82 cm**-1
    21:     907.91 cm**-1
    22:     960.98 cm**-1
    23:     997.48 cm**-1
    24:    1004.93 cm**-1
    25:    1038.36 cm**-1
    26:    1097.31 cm**-1
    27:    1125.65 cm**-1
    28:    1148.81 cm**-1
    29:    1180.26 cm**-1
    30:    1253.66 cm**-1
    31:    1278.53 cm**-1
    32:    1372.60 cm**-1
    33:    1387.58 cm**-1
    34:    1438.14 cm**-1
    35:    1447.49 cm**-1
    36:    1496.42 cm**-1
    37:    1585.76 cm**-1
    38:    1655.92 cm**-1
    39:    3197.89 cm**-1
    40:    3206.40 cm**-1
    41:    3215.29 cm**-1
    42:    3219.95 cm**-1
    43:    3255.18 cm**-1
    44:    3267.76 cm**-1

IR SPECTRUM
-----------

 Mode   freq       eps      Int      T**2         TX        TY        TZ
       cm**-1   L/(mol*cm) km/mol    a.u.
----------------------------------------------------------------------------
  6:    177.63   0.003661   18.50  0.006432  ( 0.000109  0.000020 -0.080201)
  7:    226.61   0.000014    0.07  0.000020  (-0.000615 -0.000235  0.004373)
  8:    381.75   0.002951   14.91  0.002412  (-0.000646  0.000139  0.049107)
  9:    402.36   0.003736   18.88  0.002897  (-0.045100 -0.029380 -0.000061)
 10:    484.18   0.001679    8.48  0.001082  ( 0.000387 -0.000446  0.032887)
 11:    516.06   0.000611    3.09  0.000370  (-0.010335 -0.016209 -0.000198)
 12:    535.84   0.000129    0.65  0.000075  ( 0.000565 -0.000004  0.008645)
 13:    614.67   0.001054    5.33  0.000535  (-0.022980  0.002627  0.000227)
 14:    713.03   0.007976   40.31  0.003491  (-0.000018  0.000131 -0.059083)
 15:    764.80   0.001958    9.90  0.000799  ( 0.000621 -0.001159 -0.028237)
 16:    766.36   0.000550    2.78  0.000224  (-0.007596  0.012508 -0.003135)
 17:    804.71   0.021026  106.26  0.008154  ( 0.000387 -0.000309 -0.090297)
 18:    859.73   0.004897   24.75  0.001777  (-0.012038 -0.040402  0.000372)
 19:    868.63   0.000527    2.66  0.000189  ( 0.000214 -0.000094  0.013753)
 20:    887.82   0.004791   24.21  0.001684  (-0.040683 -0.005366 -0.000116)
 21:    907.91   0.000245    1.24  0.000084  (-0.000128 -0.000289 -0.009165)
 22:    960.98   0.001567    7.92  0.000509  ( 0.000250 -0.000162 -0.022559)
 23:    997.48   0.000222    1.12  0.000070  (-0.000019 -0.000328 -0.008334)
 24:   1004.93   0.001916    9.68  0.000595  (-0.019468  0.014696  0.000296)
 25:   1038.36   0.000789    3.99  0.000237  (-0.008942 -0.012536 -0.000045)
 26:   1097.31   0.003540   17.89  0.001007  ( 0.026008 -0.018171  0.000102)
 27:   1125.65   0.009723   49.13  0.002695  ( 0.051778 -0.003805 -0.000023)
 28:   1148.81   0.005396   27.27  0.001466  ( 0.028334  0.025748 -0.000037)
 29:   1180.26   0.014246   71.99  0.003767  (-0.033466 -0.051445 -0.000014)
 30:   1253.66   0.027852  140.75  0.006933  (-0.082741  0.009324  0.000080)
 31:   1278.53   0.000153    0.77  0.000037  (-0.006081  0.000663 -0.000060)
 32:   1372.60   0.014759   74.59  0.003356  (-0.030508  0.049243  0.000062)
 33:   1387.58   0.018796   94.99  0.004227  ( 0.047160  0.044757  0.000017)
 34:   1438.14   0.063366  320.22  0.013750  (-0.117022 -0.007464 -0.000059)
 35:   1447.49   0.002696   13.63  0.000581  (-0.020055  0.013380 -0.000127)
 36:   1496.42   0.020806  105.14  0.004339  ( 0.049661 -0.043273  0.000018)
 37:   1585.76   0.001772    8.96  0.000349  (-0.016286  0.009141 -0.000016)
 38:   1655.92   0.027462  138.78  0.005175  ( 0.064243 -0.032377  0.000078)
 39:   3197.89   0.000272    1.37  0.000027  ( 0.000018  0.005150  0.000043)
 40:   3206.40   0.000694    3.51  0.000068  ( 0.006430 -0.005116 -0.000066)
 41:   3215.29   0.000384    1.94  0.000037  (-0.005957  0.001340  0.000004)
 42:   3219.95   0.000432    2.19  0.000042  ( 0.004712  0.004438 -0.000072)
 43:   3255.18   0.003490   17.64  0.000335  (-0.011132 -0.014514 -0.000020)
 44:   3267.76   0.001220    6.16  0.000116  ( 0.009399 -0.005303 -0.000178)

--------------------------
THERMOCHEMISTRY AT 298.15K
--------------------------

Temperature         ...   298.15 K
Pressure            ...     1.00 atm
Total Mass          ...   118.13 AMU
Quasi RRHO          ...     True
Cut-Off Frequency   ...     1.00 cm^-1

Throughout the following assumptions are being made:
  (1) The electronic state is orbitally nondegenerate
      but the spin degeneracy is treated
  (2) There are no thermally accessible electronically excited states
  (3) Hindered rotations indicated by low frequency modes are not
      treated as such but are treated as vibrations and this may
      cause some error
  (4) All equations used are the standard statistical mechanics
      equations for an ideal gas
  (5) All vibrations are strictly harmonic

freq.     177.63  E(vib)   ...       0.37
freq.     226.61  E(vib)   ...       0.33
freq.     381.75  E(vib)   ...       0.21
freq.     402.36  E(vib)   ...       0.19
freq.     484.18  E(vib)   ...       0.15
freq.     516.06  E(vib)   ...       0.13
freq.     535.84  E(vib)   ...       0.12
freq.     614.67  E(vib)   ...       0.10
freq.     713.03  E(vib)   ...       0.07
freq.     764.80  E(vib)   ...       0.06
freq.     766.36  E(vib)   ...       0.06
freq.     804.71  E(vib)   ...       0.05
freq.     859.73  E(vib)   ...       0.04
freq.     868.63  E(vib)   ...       0.04
freq.     887.82  E(vib)   ...       0.04
freq.     907.91  E(vib)   ...       0.03
freq.     960.98  E(vib)   ...       0.03
freq.     997.48  E(vib)   ...       0.02
freq.    1004.93  E(vib)   ...       0.02
freq.    1038.36  E(vib)   ...       0.02
freq.    1097.31  E(vib)   ...       0.02
freq.    1125.65  E(vib)   ...       0.01
freq.    1148.81  E(vib)   ...       0.01
freq.    1180.26  E(vib)   ...       0.01
freq.    1253.66  E(vib)   ...       0.01
freq.    1278.53  E(vib)   ...       0.01
freq.    1372.60  E(vib)   ...       0.01
freq.    1387.58  E(vib)   ...       0.00
freq.    1438.14  E(vib)   ...       0.00
freq.    1447.49  E(vib)   ...       0.00
freq.    1496.42  E(vib)   ...       0.00
freq.    1585.76  E(vib)   ...       0.00
freq.    1655.92  E(vib)   ...       0.00
freq.    3197.89  E(vib)   ...       0.00
freq.    3206.40  E(vib)   ...       0.00
freq.    3215.29  E(vib)   ...       0.00
freq.    3219.95  E(vib)   ...       0.00
freq.    3255.18  E(vib)   ...       0.00
freq.    3267.76  E(vib)   ...       0.00

------------
INNER ENERGY
------------

The inner energy is: U= E(el) + E(ZPE) + E(vib) + E(rot) + E(trans)
    E(el)   - is the total energy from the electronic structure calculation
              = E(kin-el) + E(nuc-el) + E(el-el) + E(nuc-nuc)
    E(ZPE)  - the the zero temperature vibrational energy from the frequency calculation
    E(vib)  - the the finite temperature correction to E(ZPE) due to population
              of excited vibrational states
    E(rot)  - is the rotational thermal energy
    E(trans)- is the translational thermal energy

Summary of contributions to the inner energy U:
Electronic energy                ...   -383.39820857 Eh
Zero point energy                ...      0.11560423 Eh      72.54 kcal/mol
Thermal vibrational correction   ...      0.00344584 Eh       2.16 kcal/mol
Thermal rotational correction    ...      0.00141627 Eh       0.89 kcal/mol
Thermal translational correction ...      0.00141627 Eh       0.89 kcal/mol
-----------------------------------------------------------------------
Total thermal energy                   -383.27632595 Eh

Summary of corrections to the electronic energy:
(perhaps to be used in another calculation)
Total thermal correction                  0.00627839 Eh       3.94 kcal/mol
Non-thermal (ZPE) correction              0.11560423 Eh      72.54 kcal/mol
-----------------------------------------------------------------------
Total correction                          0.12188262 Eh      76.48 kcal/mol

--------
ENTHALPY
--------

The enthalpy is H = U + kB*T
                kB is Boltzmann's constant
Total thermal energy              ...   -383.27632595 Eh
Thermal Enthalpy correction       ...      0.00094421 Eh       0.59 kcal/mol
-----------------------------------------------------------------------
Total Enthalpy                    ...   -383.27538174 Eh

Note: Only C1 symmetry has been detected, increase convergence thresholds
      if your molecule has a higher symmetry. Symmetry factor of 1.0 is
      used for the rotational entropy correction.

Note: Rotational entropy computed according to Herzberg
Infrared and Raman Spectra, Chapter V,1, Van Nostrand Reinhold, 1945
Point Group:  C1, Symmetry Number:   1
Rotational constants in cm-1:     0.129879     0.056013     0.039135

Vibrational entropy computed according to the QRRHO of S. Grimme
Chem.Eur.J. 2012 18 9955 using a reference frequency of 100.0 cm-1

-------
ENTROPY
-------

The entropy contributions are T*S = T*(S(el)+S(vib)+S(rot)+S(trans))
     S(el)   - electronic entropy
     S(vib)  - vibrational entropy
     S(rot)  - rotational entropy
     S(trans)- translational entropy
The entropies will be listed as multiplied by the temperature to get
units of energy

Electronic entropy                ...      0.00065446 Eh      0.41 kcal/mol
Vibrational entropy               ...      0.00517531 Eh      3.25 kcal/mol
Rotational entropy                ...      0.01336498 Eh      8.39 kcal/mol
Translational entropy             ...      0.01910727 Eh     11.99 kcal/mol
-----------------------------------------------------------------------
Final entropy term                ...      0.03830202 Eh     24.03 kcal/mol

In case the symmetry of your molecule has not been determined correctly
or in case you have a reason to use a different symmetry number we print
out the resulting rotational entropy values for sn=1,12:

 non-linear molecules -----------------------------------
|  sn= 1 | S(rot)=       0.01336498 Eh      8.39 kcal/mol|
|  sn= 2 | S(rot)=       0.01271052 Eh      7.98 kcal/mol|
|  sn= 3 | S(rot)=       0.01232769 Eh      7.74 kcal/mol|
|  sn= 4 | S(rot)=       0.01205607 Eh      7.57 kcal/mol|
|  sn= 5 | S(rot)=       0.01184538 Eh      7.43 kcal/mol|
|  sn= 6 | S(rot)=       0.01167323 Eh      7.33 kcal/mol|
|  sn= 7 | S(rot)=       0.01152769 Eh      7.23 kcal/mol|
|  sn= 8 | S(rot)=       0.01140161 Eh      7.15 kcal/mol|
|  sn= 9 | S(rot)=       0.01129040 Eh      7.08 kcal/mol|
|  sn=10 | S(rot)=       0.01119092 Eh      7.02 kcal/mol|
|  sn=11 | S(rot)=       0.01110093 Eh      6.97 kcal/mol|
|  sn=12 | S(rot)=       0.01101878 Eh      6.91 kcal/mol|
 linear molecules ---------------------------------------
|  Dinfh | S(rot)=       0.00838564 Eh      5.26 kcal/mol|
|  Cinfv | S(rot)=       0.00904010 Eh      5.67 kcal/mol|
 --------------------------------------------------------

-------------------
GIBBS FREE ENERGY

                             ****ORCA TERMINATED NORMALLY****
TOTAL RUN TIME: 0 days 0 hours 30 minutes 35 seconds 177 msec
