                         Program Version 6.0.0  -   RELEASE  -
|  1> !B3LYP aug-cc-pVTZ d3 TightSCF SlowConv RIJCOSX defgrid2
|  2>
|  3> %pal
|  4> nprocs 4
|  5> end
|  6>
|  7> %scf
|  8> MaxIter 1500
|  9> end
| 10>
| 11> %maxcore 3000
| 12>
| 13> !CPCM
| 14> %cpcm smd true
| 15> SMDsolvent "MeCN"
| 16> surfacetype gepol_ses
| 17> rsolv 2.19
| 18> end
| 19>
| 20> * xyz 1 2
| 21> C          -1.37570161970798      1.24248775146081      0.14964467519830
| 22> C          -2.72328606993136      1.33933244972942     -0.12972549489389
| 23> C          -3.50332136231250      0.18456023805622     -0.29662204383798
| 24> C          -2.90850381676726     -1.08060950224510     -0.17914577968731
| 25> C          -1.56009156673199     -1.19946806950118      0.08819160883999
| 26> C          -0.74929788406068     -0.03596298254245      0.25549211350325
| 27> N           0.58169156042701     -0.14755492533350      0.51923516368239
| 28> C           1.35906971560407     -1.35389965269269      0.28665855372844
| 29> H           1.88509976437755     -1.61600692768801      1.22001003582768
| 30> H           0.72298603517521     -2.19210005080425     -0.01631674285562
| 31> C           2.39456488415066     -1.05887336973135     -0.81777740540371
| 32> H           1.85949130432221     -0.86633084185637     -1.77045067834009
| 33> H           3.04102795891331     -1.94051290095387     -0.94478618718467
| 34> O           3.20182115584000      0.01450222304714     -0.46263444369679
| 35> C           2.47636872597331      1.18215324578846     -0.25260675546455
| 36> H           3.18364575605233      1.96931206906534      0.04942966335265
| 37> H           1.95240344881149      1.50557330797809     -1.17560901565404
| 38> C           1.44564375796760      0.96716490649827      0.86894476596378
| 39> H           0.87103596845838      1.87677062866973      1.07105968779003
| 40> H           1.98209056577574      0.68782297194295      1.79196599824839
| 41> H          -1.13914062593493     -2.19705534469310      0.21352347531936
| 42> H          -3.51569254322193     -1.98314623006578     -0.28645384104721
| 43> H          -4.57208793284479      0.27077776097684     -0.51046305441418
| 44> H          -3.18143391858996      2.32714955314318     -0.22534185944500
| 45> H          -0.79875706174547      2.16114869175120      0.25195876047079
| 46> *
| 47>
| 48>                          ****END OF INPUT****

CARTESIAN COORDINATES (ANGSTROEM)
---------------------------------
  C     -1.375702    1.242488    0.149645
  C     -2.723286    1.339332   -0.129725
  C     -3.503321    0.184560   -0.296622
  C     -2.908504   -1.080610   -0.179146
  C     -1.560092   -1.199468    0.088192
  C     -0.749298   -0.035963    0.255492
  N      0.581692   -0.147555    0.519235
  C      1.359070   -1.353900    0.286659
  H      1.885100   -1.616007    1.220010
  H      0.722986   -2.192100   -0.016317
  C      2.394565   -1.058873   -0.817777
  H      1.859491   -0.866331   -1.770451
  H      3.041028   -1.940513   -0.944786
  O      3.201821    0.014502   -0.462634
  C      2.476369    1.182153   -0.252607
  H      3.183646    1.969312    0.049430
  H      1.952403    1.505573   -1.175609
  C      1.445644    0.967165    0.868945
  H      0.871036    1.876771    1.071060
  H      1.982091    0.687823    1.791966
  H     -1.139141   -2.197055    0.213523
  H     -3.515693   -1.983146   -0.286454
  H     -4.572088    0.270778   -0.510463
  H     -3.181434    2.327150   -0.225342
  H     -0.798757    2.161149    0.251959

 Total Charge           Charge          ....    1
 Multiplicity           Mult            ....    2
 Number of Electrons    NEL             ....   87
 Basis Dimension        Dim             ....  851

ORBITAL ENERGIES
----------------
                 SPIN UP ORBITALS
  NO   OCC          E(Eh)            E(eV)
   0   1.0000     -19.157675      -521.3068
   1   1.0000     -14.432767      -392.7356
   2   1.0000     -10.267090      -279.3817
   3   1.0000     -10.238849      -278.6133
   4   1.0000     -10.238427      -278.6018
   5   1.0000     -10.231483      -278.4128
   6   1.0000     -10.230978      -278.3991
   7   1.0000     -10.213628      -277.9270
   8   1.0000     -10.213311      -277.9183
   9   1.0000     -10.212051      -277.8840
  10   1.0000     -10.201691      -277.6021
  11   1.0000     -10.201398      -277.5941
  12   1.0000      -1.082380       -29.4531
  13   1.0000      -1.020000       -27.7556
  14   1.0000      -0.883022       -24.0283
  15   1.0000      -0.805429       -21.9168
  16   1.0000      -0.794504       -21.6195
  17   1.0000      -0.777474       -21.1562
  18   1.0000      -0.718681       -19.5563
  19   1.0000      -0.695601       -18.9283
  20   1.0000      -0.644372       -17.5342
  21   1.0000      -0.627022       -17.0621
  22   1.0000      -0.593980       -16.1630
  23   1.0000      -0.569930       -15.5086
  24   1.0000      -0.521072       -14.1791
  25   1.0000      -0.519221       -14.1287
  26   1.0000      -0.501365       -13.6428
  27   1.0000      -0.500442       -13.6177
  28   1.0000      -0.489410       -13.3175
  29   1.0000      -0.471900       -12.8411
  30   1.0000      -0.461665       -12.5625
  31   1.0000      -0.452227       -12.3057
  32   1.0000      -0.448901       -12.2152
  33   1.0000      -0.414524       -11.2798
  34   1.0000      -0.407835       -11.0978
  35   1.0000      -0.393713       -10.7135
  36   1.0000      -0.386676       -10.5220
  37   1.0000      -0.377580       -10.2745
  38   1.0000      -0.363064        -9.8795
  39   1.0000      -0.357371        -9.7246
  40   1.0000      -0.329208        -8.9582
  41   1.0000      -0.290483        -7.9044
  42   1.0000      -0.288994        -7.8639
  43   1.0000      -0.245639        -6.6842
  44   0.0000      -0.040564        -1.1038
  45   0.0000      -0.036718        -0.9991
  46   0.0000      -0.006949        -0.1891
  47   0.0000       0.004836         0.1316
  48   0.0000       0.007283         0.1982

                 SPIN DOWN ORBITALS
  NO   OCC          E(Eh)            E(eV)
   0   1.0000     -19.156850      -521.2844
   1   1.0000     -14.422027      -392.4433
   2   1.0000     -10.267895      -279.4036
   3   1.0000     -10.238110      -278.5931
   4   1.0000     -10.237769      -278.5839
   5   1.0000     -10.231647      -278.4173
   6   1.0000     -10.231172      -278.4044
   7   1.0000     -10.210746      -277.8485
   8   1.0000     -10.210491      -277.8416
   9   1.0000     -10.207978      -277.7732
  10   1.0000     -10.202996      -277.6376
  11   1.0000     -10.202747      -277.6309
  12   1.0000      -1.080022       -29.3889
  13   1.0000      -1.003878       -27.3169
  14   1.0000      -0.877526       -23.8787
  15   1.0000      -0.802751       -21.8440
  16   1.0000      -0.790162       -21.5014
  17   1.0000      -0.774664       -21.0797
  18   1.0000      -0.709514       -19.3069
  19   1.0000      -0.693969       -18.8839
  20   1.0000      -0.639709       -17.4074
  21   1.0000      -0.624095       -16.9825
  22   1.0000      -0.590215       -16.0606
  23   1.0000      -0.565974       -15.4009
  24   1.0000      -0.515645       -14.0314
  25   1.0000      -0.515476       -14.0268
  26   1.0000      -0.499414       -13.5897
  27   1.0000      -0.493352       -13.4248
  28   1.0000      -0.485721       -13.2172
  29   1.0000      -0.465251       -12.6601
  30   1.0000      -0.458751       -12.4832
  31   1.0000      -0.451206       -12.2780
  32   1.0000      -0.442254       -12.0343
  33   1.0000      -0.411024       -11.1845
  34   1.0000      -0.398228       -10.8363
  35   1.0000      -0.391596       -10.6559
  36   1.0000      -0.384708       -10.4684
  37   1.0000      -0.375019       -10.2048
  38   1.0000      -0.358896        -9.7661
  39   1.0000      -0.342967        -9.3326
  40   1.0000      -0.318076        -8.6553
  41   1.0000      -0.282478        -7.6866
  42   1.0000      -0.279508        -7.6058
  43   0.0000      -0.166203        -4.5226
  44   0.0000      -0.031978        -0.8702
  45   0.0000      -0.020264        -0.5514
  46   0.0000      -0.006185        -0.1683
  47   0.0000       0.005798         0.1578

MULLIKEN ATOMIC CHARGES AND SPIN POPULATIONS
--------------------------------------------
   0 C :   -0.375274    0.179360
   1 C :   -0.766985   -0.075801
   2 C :   -0.538773    0.274286
   3 C :   -0.687640   -0.082300
   4 C :   -0.577167    0.183270
   5 C :    1.662274    0.001550
   6 N :    0.228341    0.454361
   7 C :   -0.598310   -0.028879
   8 H :    0.210292    0.010460
   9 H :    0.242487    0.002450
  10 C :   -0.020538    0.041687
  11 H :    0.221901    0.002134
  12 H :    0.247701    0.003031
  13 O :   -0.704757    0.030135
  14 C :   -0.014289    0.038067
  15 H :    0.274066    0.002421
  16 H :    0.232879    0.003590
  17 C :   -0.677722   -0.038133
  18 H :    0.202340   -0.002316
  19 H :    0.180776    0.021751
  20 H :    0.445742   -0.011315
  21 H :    0.442409    0.001577
  22 H :    0.464969    0.001956
  23 H :    0.388490    0.000835
  24 H :    0.516789   -0.014176
Sum of atomic charges         :    1.0000000

LOEWDIN ATOMIC CHARGES AND SPIN POPULATIONS
-------------------------------------------
   0 C :    0.273371    0.088859
   1 C :    0.239634    0.027472
   2 C :    0.244258    0.128603
   3 C :    0.239069    0.026675
   4 C :    0.274058    0.090170
   5 C :   -0.129535    0.085106
   6 N :    0.342878    0.294157
   7 C :    0.270891    0.046844
   8 H :   -0.094924    0.010041
   9 H :   -0.152970    0.001876
  10 C :    0.066665    0.024430
  11 H :   -0.119145    0.002493
  12 H :   -0.125130    0.004598
  13 O :    0.613115    0.025390
  14 C :    0.066071    0.022795
  15 H :   -0.125035    0.003980
  16 H :   -0.119427    0.002866
  17 C :    0.266671    0.046669
  18 H :   -0.148269    0.001532
  19 H :   -0.097497    0.011704
  20 H :   -0.168278    0.018131
  21 H :   -0.149885   -0.006915
  22 H :   -0.147229    0.031143
  23 H :   -0.149727   -0.006654
  24 H :   -0.169630    0.018036

  Mayer bond orders larger than 0.100000
B(  0-C ,  1-C ) :   1.1930 B(  0-C ,  2-C ) :   0.2563 B(  0-C ,  3-C ) :  -0.1179
B(  0-C ,  4-C ) :   0.1302 B(  0-C ,  5-C ) :   0.3793 B(  0-C ,  6-N ) :  -0.1346
B(  0-C , 24-H ) :   0.3773 B(  1-C ,  2-C ) :   1.1576 B(  1-C ,  4-C ) :  -0.1013
B(  1-C ,  5-C ) :  -0.4624 B(  1-C , 23-H ) :   0.7484 B(  2-C ,  3-C ) :   1.1599
B(  2-C ,  4-C ) :   0.2599 B(  2-C ,  5-C ) :  -0.2238 B(  2-C , 22-H ) :   0.6097
B(  3-C ,  4-C ) :   1.3371 B(  3-C ,  5-C ) :  -0.4023 B(  3-C , 21-H ) :   0.6537
B(  4-C ,  5-C ) :   0.2409 B(  4-C , 20-H ) :   0.4872 B(  5-C ,  6-N ) :   0.4919
B(  6-N ,  7-C ) :   1.0613 B(  6-N , 17-C ) :   1.0285 B(  7-C ,  8-H ) :   0.9472
B(  7-C ,  9-H ) :   0.9375 B(  7-C , 10-C ) :   0.9644 B(  7-C , 13-O ) :   0.1177
B(  7-C , 17-C ) :   0.1955 B( 10-C , 11-H ) :   0.9562 B( 10-C , 12-H ) :   0.9572
B( 10-C , 13-O ) :   0.8188 B( 13-O , 14-C ) :   0.8245 B( 13-O , 17-C ) :   0.1168
B( 14-C , 15-H ) :   0.9358 B( 14-C , 16-H ) :   0.9738 B( 14-C , 17-C ) :   0.9474
B( 17-C , 18-H ) :   0.9870 B( 17-C , 19-H ) :   0.9664

Dispersion correction           -0.047079416
FINAL SINGLE POINT ENERGY      -518.592692613007

DIPOLE MOMENT
-------------

Method             : SCF
Type of density    : Electron Density
Multiplicity       :   2
Irrep              :   0
Energy             :  -518.5456131973464835 Eh
Relativity type    :
Basis              : AO
                                X                 Y                 Z
Electronic contribution:     -2.867754714      -0.049874656       0.646107324
Nuclear contribution   :      2.207733299      -0.028342032      -0.256093747
                        -----------------------------------------
Total Dipole Moment    :     -0.660021415      -0.078216688       0.390013577
                        -----------------------------------------
Magnitude (a.u.)       :      0.770620989
Magnitude (Debye)      :      1.958762889

Rotational constants in cm-1:             0.077620             0.019238             0.016602
Rotational constants in MHz :          2326.988545           576.750143           497.725802

                             ****ORCA TERMINATED NORMALLY****
TOTAL RUN TIME: 0 days 0 hours 9 minutes 52 seconds 866 msec
