                         Program Version 6.0.0  -   RELEASE  -
|  1> !PBE0 def2-SV(p) Opt Freq d3 TightSCF SlowConv RIJCOSX defgrid2
|  2>
|  3> %pal
|  4> nprocs 4
|  5> end
|  6>
|  7> %scf
|  8> MaxIter 1500
|  9> end
| 10>
| 11> %maxcore 3000
| 12>
| 13>
| 14>
| 15> * xyz 0 1
| 16> C     2.5646754   -0.7990404    0.4592833
| 17> N     1.3204316   -1.4101927    0.0642564
| 18> C     0.3300490   -0.6859884   -0.2806457
| 19> N     0.3149975    0.6802208   -0.3308504
| 20> C    -0.8902574    1.4305593   -0.5958926
| 21> C    -1.9693198    1.2685736    0.4828483
| 22> C    -2.8230474    0.0202204    0.2759970
| 23> C    -2.0334050   -1.2826670    0.3793531
| 24> C    -0.9255652   -1.4186830   -0.6723943
| 25> H    -1.2869551   -1.0734014   -1.6424932
| 26> H    -0.6474611   -2.4687516   -0.7635087
| 27> H    -1.5885270   -1.3697274    1.3730383
| 28> H    -2.7303310   -2.1149012    0.2575137
| 29> H    -3.6186613    0.0080459    1.0248158
| 30> H    -3.2970332    0.0737051   -0.7075890
| 31> H    -1.4898189    1.2307391    1.4632221
| 32> H    -2.6197877    2.1452278    0.4610425
| 33> H    -1.3014905    1.1348639   -1.5668223
| 34> H    -0.6038757    2.4829309   -0.6669068
| 35> C     1.4419736    1.3936974    0.2344640
| 36> C     2.7263064    0.6282114   -0.0657865
| 37> H     3.5813035    1.1211521    0.3972367
| 38> H     2.8788721    0.5976665   -1.1465302
| 39> H     1.4841995    2.3932851   -0.2095404
| 40> H     1.3252640    1.5087918    1.3229166
| 41> H     2.6231881   -0.8071560    1.5564024
| 42> H     3.3727740   -1.4396660    0.0881287
| 43> *
| 44>
| 45>                          ****END OF INPUT****
 Total Charge           Charge          ....    0
 Multiplicity           Mult            ....    1
 Number of Electrons    NEL             ....   84
Dispersion correction           -0.026018869
FINAL SINGLE POINT ENERGY      -461.211079407813
Dispersion correction             ... done (  0.1 sec)
Dispersion correction           -0.025854598
FINAL SINGLE POINT ENERGY      -461.213632148259
Dispersion correction             ... done (  0.1 sec)
Dispersion correction           -0.025816444
FINAL SINGLE POINT ENERGY      -461.213963017353
Dispersion correction             ... done (  0.1 sec)
FINAL SINGLE POINT ENERGY      -461.214056617149
FINAL SINGLE POINT ENERGY      -461.214071493534
FINAL SINGLE POINT ENERGY      -461.214082454597
FINAL SINGLE POINT ENERGY      -461.214089887892
Dispersion correction             ... done (  0.1 sec)
Dispersion correction           -0.025772942
FINAL SINGLE POINT ENERGY      -461.214095882820
Dispersion correction             ... done (  0.1 sec)
Dispersion correction           -0.025771228
FINAL SINGLE POINT ENERGY      -461.214098628700
Dispersion correction             ... done (  0.1 sec)
                    ***********************HURRAY********************

CARTESIAN COORDINATES (ANGSTROEM)
---------------------------------
  C      2.557307   -0.802728    0.481024
  N      1.332942   -1.431822    0.057658
  C      0.341019   -0.700247   -0.297082
  N      0.318746    0.680324   -0.314615
  C     -0.891769    1.434971   -0.561144
  C     -1.990463    1.269168    0.491403
  C     -2.827659    0.007153    0.315163
  C     -2.045869   -1.301532    0.351645
  C     -0.928290   -1.415006   -0.691501
  H     -1.292032   -1.066727   -1.676569
  H     -0.631337   -2.467453   -0.801963
  H     -1.605706   -1.457522    1.354296
  H     -2.755963   -2.133299    0.196020
  H     -3.615397   -0.018458    1.089770
  H     -3.356050    0.074875   -0.656511
  H     -1.523406    1.288557    1.494087
  H     -2.661305    2.146421    0.440002
  H     -1.300526    1.191537   -1.560651
  H     -0.592159    2.494122   -0.609233
  C      1.469142    1.402861    0.189376
  C      2.737108    0.607937   -0.062803
  H      3.602500    1.113788    0.398829
  H      2.920301    0.561969   -1.151502
  H      1.520007    2.380334   -0.321846
  H      1.362697    1.613263    1.275179
  H      2.588862   -0.784092    1.589958
  H      3.405800   -1.440679    0.172570

 Multiplicity           Mult            ....    1
 Number of Electrons    NEL             ....   84
 Basis Dimension        Dim             ....  186

ORBITAL ENERGIES
----------------

  NO   OCC          E(Eh)            E(eV)
   0   2.0000     -14.406743      -392.0274
   1   2.0000     -14.335662      -390.0932
   2   2.0000     -10.283675      -279.8330
   3   2.0000     -10.264953      -279.3236
   4   2.0000     -10.262258      -279.2502
   5   2.0000     -10.235554      -278.5236
   6   2.0000     -10.230763      -278.3932
   7   2.0000     -10.228172      -278.3227
   8   2.0000     -10.226234      -278.2700
   9   2.0000     -10.224270      -278.2165
  10   2.0000     -10.221187      -278.1326
  11   2.0000      -0.987555       -26.8727
  12   2.0000      -0.892479       -24.2856
  13   2.0000      -0.833481       -22.6802
  14   2.0000      -0.794818       -21.6281
  15   2.0000      -0.770647       -20.9704
  16   2.0000      -0.702562       -19.1177
  17   2.0000      -0.677599       -18.4384
  18   2.0000      -0.664544       -18.0832
  19   2.0000      -0.604880       -16.4596
  20   2.0000      -0.583200       -15.8697
  21   2.0000      -0.529836       -14.4176
  22   2.0000      -0.526329       -14.3221
  23   2.0000      -0.498464       -13.5639
  24   2.0000      -0.483150       -13.1472
  25   2.0000      -0.463016       -12.5993
  26   2.0000      -0.452587       -12.3155
  27   2.0000      -0.446447       -12.1484
  28   2.0000      -0.430229       -11.7071
  29   2.0000      -0.428246       -11.6532
  30   2.0000      -0.410568       -11.1721
  31   2.0000      -0.404098       -10.9961
  32   2.0000      -0.387212       -10.5366
  33   2.0000      -0.372900       -10.1471
  34   2.0000      -0.371342       -10.1047
  35   2.0000      -0.346121        -9.4184
  36   2.0000      -0.341270        -9.2864
  37   2.0000      -0.336565        -9.1584
  38   2.0000      -0.330823        -9.0021
  39   2.0000      -0.302388        -8.2284
  40   2.0000      -0.235398        -6.4055
  41   2.0000      -0.213435        -5.8079
  42   0.0000       0.039072         1.0632
  43   0.0000       0.061794         1.6815
  44   0.0000       0.074995         2.0407
  45   0.0000       0.082641         2.2488
  46   0.0000       0.098424         2.6783

MULLIKEN ATOMIC CHARGES
-----------------------
   0 C :   -0.080607
   1 N :   -0.258174
   2 C :    0.038587
   3 N :   -0.355127
   4 C :   -0.070316
   5 C :   -0.211164
   6 C :   -0.227643
   7 C :   -0.222781
   8 C :   -0.141589
   9 H :    0.112927
  10 H :    0.124847
  11 H :    0.120359
  12 H :    0.120156
  13 H :    0.118758
  14 H :    0.105742
  15 H :    0.113113
  16 H :    0.114828
  17 H :    0.114941
  18 H :    0.115505
  19 C :   -0.071003
  20 C :   -0.254924
  21 H :    0.117873
  22 H :    0.124232
  23 H :    0.118705
  24 H :    0.111451
  25 H :    0.107132
  26 H :    0.114171
Sum of atomic charges:   -0.0000000

LOEWDIN ATOMIC CHARGES
----------------------
   0 C :   -0.170190
   1 N :   -0.205425
   2 C :    0.024068
   3 N :   -0.097959
   4 C :   -0.146537
   5 C :   -0.243790
   6 C :   -0.233931
   7 C :   -0.226229
   8 C :   -0.230988
   9 H :    0.122726
  10 H :    0.140727
  11 H :    0.122843
  12 H :    0.123241
  13 H :    0.121090
  14 H :    0.114913
  15 H :    0.121049
  16 H :    0.123062
  17 H :    0.115561
  18 H :    0.121488
  19 C :   -0.141785
  20 C :   -0.252914
  21 H :    0.124973
  22 H :    0.125209
  23 H :    0.116152
  24 H :    0.106368
  25 H :    0.111863
  26 H :    0.114414

  Mayer bond orders larger than 0.100000
B(  0-C ,  1-N ) :   1.0512 B(  0-C , 20-C ) :   1.0740 B(  0-C , 25-H ) :   0.9282
B(  0-C , 26-H ) :   0.9348 B(  1-N ,  2-C ) :   1.9266 B(  2-C ,  3-N ) :   1.1074
B(  2-C ,  8-C ) :   1.0568 B(  3-N ,  4-C ) :   1.0005 B(  3-N , 19-C ) :   0.9746
B(  4-C ,  5-C ) :   1.0952 B(  4-C , 17-H ) :   0.9220 B(  4-C , 18-H ) :   0.9241
B(  5-C ,  6-C ) :   1.1064 B(  5-C , 15-H ) :   0.9220 B(  5-C , 16-H ) :   0.9236
B(  6-C ,  7-C ) :   1.0932 B(  6-C , 13-H ) :   0.9301 B(  6-C , 14-H ) :   0.9270
B(  7-C ,  8-C ) :   1.0864 B(  7-C , 11-H ) :   0.9242 B(  7-C , 12-H ) :   0.9288
B(  8-C ,  9-H ) :   0.9058 B(  8-C , 10-H ) :   0.9006 B( 19-C , 20-C ) :   1.0883
B( 19-C , 23-H ) :   0.9281 B( 19-C , 24-H ) :   0.9293 B( 20-C , 21-H ) :   0.9250
B( 20-C , 22-H ) :   0.9215

Dispersion correction           -0.025771614
FINAL SINGLE POINT ENERGY      -461.214099373698

DIPOLE MOMENT
-------------

Method             : SCF
Type of density    : Electron Density
Multiplicity       :   1
Irrep              :   0
Energy             :  -461.1883277597853521 Eh
Relativity type    :
Basis              : AO
                                X                 Y                 Z
Electronic contribution:      3.291274024      -2.286232621      -1.132332725
Nuclear contribution   :     -3.701053963       3.371558610       1.131300425
                        -----------------------------------------
Total Dipole Moment    :     -0.409779939       1.085325989      -0.001032300
                        -----------------------------------------
Magnitude (a.u.)       :      1.160109118
Magnitude (Debye)      :      2.948763036

VIBRATIONAL FREQUENCIES
-----------------------

Scaling factor for frequencies =  1.000000000  (already applied!)

     0:       0.00 cm**-1
     1:       0.00 cm**-1
     2:       0.00 cm**-1
     3:       0.00 cm**-1
     4:       0.00 cm**-1
     5:       0.00 cm**-1
     6:      59.92 cm**-1
     7:      82.83 cm**-1
     8:     164.03 cm**-1
     9:     233.88 cm**-1
    10:     245.48 cm**-1
    11:     289.91 cm**-1
    12:     362.54 cm**-1
    13:     365.54 cm**-1
    14:     384.71 cm**-1
    15:     419.34 cm**-1
    16:     502.27 cm**-1
    17:     507.28 cm**-1
    18:     530.56 cm**-1
    19:     626.33 cm**-1
    20:     711.15 cm**-1
    21:     726.54 cm**-1
    22:     824.96 cm**-1
    23:     852.62 cm**-1
    24:     858.42 cm**-1
    25:     890.50 cm**-1
    26:     896.93 cm**-1
    27:     922.39 cm**-1
    28:     938.02 cm**-1
    29:     989.17 cm**-1
    30:    1002.54 cm**-1
    31:    1024.11 cm**-1
    32:    1043.56 cm**-1
    33:    1096.32 cm**-1
    34:    1123.61 cm**-1
    35:    1133.19 cm**-1
    36:    1134.69 cm**-1
    37:    1162.52 cm**-1
    38:    1189.94 cm**-1
    39:    1213.86 cm**-1
    40:    1232.10 cm**-1
    41:    1251.64 cm**-1
    42:    1264.86 cm**-1
    43:    1284.43 cm**-1
    44:    1295.57 cm**-1
    45:    1316.91 cm**-1
    46:    1332.37 cm**-1
    47:    1360.87 cm**-1
    48:    1368.61 cm**-1
    49:    1378.31 cm**-1
    50:    1384.55 cm**-1
    51:    1397.21 cm**-1
    52:    1408.65 cm**-1
    53:    1412.08 cm**-1
    54:    1417.00 cm**-1
    55:    1450.06 cm**-1
    56:    1458.74 cm**-1
    57:    1464.77 cm**-1
    58:    1468.33 cm**-1
    59:    1472.15 cm**-1
    60:    1477.13 cm**-1
    61:    1484.52 cm**-1
    62:    1492.22 cm**-1
    63:    1520.99 cm**-1
    64:    1760.60 cm**-1
    65:    2982.26 cm**-1
    66:    3003.64 cm**-1
    67:    3020.75 cm**-1
    68:    3027.31 cm**-1
    69:    3035.77 cm**-1
    70:    3039.85 cm**-1
    71:    3046.07 cm**-1
    72:    3051.06 cm**-1
    73:    3069.03 cm**-1
    74:    3078.22 cm**-1
    75:    3084.76 cm**-1
    76:    3091.13 cm**-1
    77:    3096.57 cm**-1
    78:    3111.08 cm**-1
    79:    3113.73 cm**-1
    80:    3147.62 cm**-1

IR SPECTRUM
-----------

 Mode   freq       eps      Int      T**2         TX        TY        TZ
       cm**-1   L/(mol*cm) km/mol    a.u.
----------------------------------------------------------------------------
  6:     59.92   0.000011    0.05  0.000056  (-0.003372 -0.005334  0.003986)
  7:     82.83   0.000218    1.10  0.000823  ( 0.003376  0.016737 -0.023055)
  8:    164.03   0.000172    0.87  0.000327  (-0.005219  0.014317  0.009746)
  9:    233.88   0.000315    1.59  0.000421  ( 0.012953 -0.005660 -0.014864)
 10:    245.48   0.000456    2.30  0.000580  ( 0.005257 -0.006471  0.022589)
 11:    289.91   0.000207    1.04  0.000223  (-0.011340 -0.001970  0.009491)
 12:    362.54   0.000444    2.24  0.000382  ( 0.004016 -0.001335 -0.019081)
 13:    365.54   0.000021    0.11  0.000018  (-0.002970  0.001320 -0.002745)
 14:    384.71   0.000883    4.46  0.000716  (-0.012572 -0.005731  0.022922)
 15:    419.34   0.000386    1.95  0.000288  ( 0.013497 -0.009717  0.003303)
 16:    502.27   0.000103    0.52  0.000064  (-0.006920 -0.003542  0.001962)
 17:    507.28   0.000461    2.33  0.000284  ( 0.012543 -0.005428 -0.009837)
 18:    530.56   0.000155    0.79  0.000091  ( 0.005735 -0.002726  0.007145)
 19:    626.33   0.000898    4.54  0.000448  (-0.011529  0.016823  0.005632)
 20:    711.15   0.000094    0.48  0.000041  ( 0.000507 -0.005600 -0.003134)
 21:    726.54   0.001087    5.49  0.000467  ( 0.001070  0.011051 -0.018532)
 22:    824.96   0.000184    0.93  0.000069  (-0.001046 -0.007190 -0.004079)
 23:    852.62   0.000631    3.19  0.000231  ( 0.007112  0.013226 -0.002363)
 24:    858.42   0.000406    2.05  0.000148  (-0.007052 -0.003228  0.009352)
 25:    890.50   0.000205    1.04  0.000072  ( 0.005293 -0.005603  0.003541)
 26:    896.93   0.000090    0.45  0.000031  ( 0.002319  0.001432  0.004885)
 27:    922.39   0.000486    2.46  0.000165  (-0.000122 -0.012824  0.000260)
 28:    938.02   0.001118    5.65  0.000372  (-0.008572  0.013228 -0.011115)
 29:    989.17   0.002505   12.66  0.000790  ( 0.005899 -0.027411 -0.002030)
 30:   1002.54   0.001391    7.03  0.000433  ( 0.015251  0.005041  0.013224)
 31:   1024.11   0.001376    6.95  0.000419  (-0.007685 -0.018962 -0.000720)
 32:   1043.56   0.000250    1.27  0.000075  ( 0.006504  0.005658 -0.000748)
 33:   1096.32   0.002521   12.74  0.000717  (-0.004968  0.026199 -0.002540)
 34:   1123.61   0.000840    4.25  0.000233  ( 0.009514  0.008410 -0.008494)
 35:   1133.19   0.000058    0.29  0.000016  ( 0.000448 -0.002942 -0.002673)
 36:   1134.69   0.000784    3.96  0.000216  ( 0.009643  0.002782 -0.010720)
 37:   1162.52   0.004066   20.55  0.001091  ( 0.031522  0.009028  0.004024)
 38:   1189.94   0.000357    1.80  0.000093  (-0.004752  0.000893 -0.008374)
 39:   1213.86   0.002480   12.53  0.000638  (-0.001827  0.025154 -0.001251)
 40:   1232.10   0.001633    8.25  0.000414  (-0.001947  0.019818  0.004128)
 41:   1251.64   0.002576   13.02  0.000642  (-0.024802 -0.004988 -0.001502)
 42:   1264.86   0.000444    2.24  0.000109  (-0.001567  0.010109  0.002189)
 43:   1284.43   0.005422   27.40  0.001317  (-0.031018  0.018602 -0.003018)
 44:   1295.57   0.001932    9.76  0.000465  (-0.001245  0.021492  0.001344)
 45:   1316.91   0.000092    0.47  0.000022  ( 0.000087  0.001306  0.004485)
 46:   1332.37   0.003434   17.35  0.000804  (-0.014956  0.022616 -0.008310)
 47:   1360.87   0.006054   30.59  0.001388  (-0.022450  0.029704 -0.001388)
 48:   1368.61   0.000401    2.03  0.000091  (-0.008421 -0.004278 -0.001476)
 49:   1378.31   0.001159    5.86  0.000262  (-0.014936  0.001572 -0.006079)
 50:   1384.55   0.001442    7.29  0.000325  (-0.015674  0.008723 -0.001790)
 51:   1397.21   0.001580    7.98  0.000353  (-0.016485  0.008164 -0.003796)
 52:   1408.65   0.004603   23.26  0.001020  ( 0.023399 -0.021726 -0.000459)
 53:   1412.08   0.001562    7.89  0.000345  ( 0.017775 -0.003485  0.004140)
 54:   1417.00   0.007254   36.66  0.001598  ( 0.031638  0.024167  0.003554)
 55:   1450.06   0.002109   10.66  0.000454  ( 0.004860  0.020724 -0.000899)
 56:   1458.74   0.001476    7.46  0.000316  (-0.001367 -0.012135 -0.012912)
 57:   1464.77   0.002620   13.24  0.000558  ( 0.016070  0.016681 -0.004649)
 58:   1468.33   0.002409   12.17  0.000512  (-0.013764  0.016662 -0.006703)
 59:   1472.15   0.005485   27.72  0.001163  (-0.004271  0.027056  0.020310)
 60:   1477.13   0.000996    5.03  0.000210  (-0.009644 -0.001855  0.010678)
 61:   1484.52   0.002245   11.35  0.000472  ( 0.009685  0.018706  0.005317)
 62:   1492.22   0.003571   18.05  0.000747  (-0.002422 -0.022237  0.015698)
 63:   1520.99   0.011297   57.09  0.002318  (-0.000456 -0.048140  0.000405)
 64:   1760.60   0.056671  286.39  0.010045  ( 0.079157 -0.058279  0.019561)
 65:   2982.26   0.007705   38.94  0.000806  (-0.000397  0.021419  0.018638)
 66:   3003.64   0.012617   63.76  0.001311  ( 0.021545 -0.007365  0.028150)
 67:   3020.75   0.004018   20.30  0.000415  (-0.018889 -0.000631 -0.007608)
 68:   3027.31   0.004984   25.18  0.000514  ( 0.011655 -0.012110  0.015206)
 69:   3035.77   0.004078   20.61  0.000419  ( 0.002390 -0.014710 -0.014039)
 70:   3039.85   0.002552   12.90  0.000262  (-0.007654 -0.014072  0.002326)
 71:   3046.07   0.006118   30.92  0.000627  ( 0.004650 -0.008976  0.022904)
 72:   3051.06   0.001370    6.92  0.000140  ( 0.007376  0.007023 -0.006030)
 73:   3069.03   0.010486   52.99  0.001066  ( 0.027495 -0.016637 -0.005787)
 74:   3078.22   0.007399   37.39  0.000750  (-0.014808 -0.016289  0.016293)
 75:   3084.76   0.007933   40.09  0.000803  (-0.025731  0.000991  0.011812)
 76:   3091.13   0.003551   17.94  0.000358  ( 0.002798 -0.016814  0.008242)
 77:   3096.57   0.009870   49.88  0.000995  (-0.017369 -0.000791 -0.026313)
 78:   3111.08   0.005018   25.36  0.000503  (-0.005367 -0.021577 -0.003002)
 79:   3113.73   0.005809   29.36  0.000582  (-0.012695 -0.008399 -0.018721)
 80:   3147.62   0.000949    4.80  0.000094  ( 0.002218 -0.009166  0.002266)

--------------------------
THERMOCHEMISTRY AT 298.15K
--------------------------

Temperature         ...   298.15 K
Pressure            ...     1.00 atm
Total Mass          ...   152.24 AMU
Quasi RRHO          ...     True
Cut-Off Frequency   ...     1.00 cm^-1

Throughout the following assumptions are being made:
  (1) The electronic state is orbitally nondegenerate
  (2) There are no thermally accessible electronically excited states
  (3) Hindered rotations indicated by low frequency modes are not
      treated as such but are treated as vibrations and this may
      cause some error
  (4) All equations used are the standard statistical mechanics
      equations for an ideal gas
  (5) All vibrations are strictly harmonic

freq.      59.92  E(vib)   ...       0.51
freq.      82.83  E(vib)   ...       0.48
freq.     164.03  E(vib)   ...       0.39
freq.     233.88  E(vib)   ...       0.32
freq.     245.48  E(vib)   ...       0.31
freq.     289.91  E(vib)   ...       0.27
freq.     362.54  E(vib)   ...       0.22
freq.     365.54  E(vib)   ...       0.22
freq.     384.71  E(vib)   ...       0.20
freq.     419.34  E(vib)   ...       0.18
freq.     502.27  E(vib)   ...       0.14
freq.     507.28  E(vib)   ...       0.14
freq.     530.56  E(vib)   ...       0.13
freq.     626.33  E(vib)   ...       0.09
freq.     711.15  E(vib)   ...       0.07
freq.     726.54  E(vib)   ...       0.06
freq.     824.96  E(vib)   ...       0.04
freq.     852.62  E(vib)   ...       0.04
freq.     858.42  E(vib)   ...       0.04
freq.     890.50  E(vib)   ...       0.04
freq.     896.93  E(vib)   ...       0.03
freq.     922.39  E(vib)   ...       0.03
freq.     938.02  E(vib)   ...       0.03
freq.     989.17  E(vib)   ...       0.02
freq.    1002.54  E(vib)   ...       0.02
freq.    1024.11  E(vib)   ...       0.02
freq.    1043.56  E(vib)   ...       0.02
freq.    1096.32  E(vib)   ...       0.02
freq.    1123.61  E(vib)   ...       0.01
freq.    1133.19  E(vib)   ...       0.01
freq.    1134.69  E(vib)   ...       0.01
freq.    1162.52  E(vib)   ...       0.01
freq.    1189.94  E(vib)   ...       0.01
freq.    1213.86  E(vib)   ...       0.01
freq.    1232.10  E(vib)   ...       0.01
freq.    1251.64  E(vib)   ...       0.01
freq.    1264.86  E(vib)   ...       0.01
freq.    1284.43  E(vib)   ...       0.01
freq.    1295.57  E(vib)   ...       0.01
freq.    1316.91  E(vib)   ...       0.01
freq.    1332.37  E(vib)   ...       0.01
freq.    1360.87  E(vib)   ...       0.01
freq.    1368.61  E(vib)   ...       0.01
freq.    1378.31  E(vib)   ...       0.01
freq.    1384.55  E(vib)   ...       0.00
freq.    1397.21  E(vib)   ...       0.00
freq.    1408.65  E(vib)   ...       0.00
freq.    1412.08  E(vib)   ...       0.00
freq.    1417.00  E(vib)   ...       0.00
freq.    1450.06  E(vib)   ...       0.00
freq.    1458.74  E(vib)   ...       0.00
freq.    1464.77  E(vib)   ...       0.00
freq.    1468.33  E(vib)   ...       0.00
freq.    1472.15  E(vib)   ...       0.00
freq.    1477.13  E(vib)   ...       0.00
freq.    1484.52  E(vib)   ...       0.00
freq.    1492.22  E(vib)   ...       0.00
freq.    1520.99  E(vib)   ...       0.00
freq.    1760.60  E(vib)   ...       0.00
freq.    2982.26  E(vib)   ...       0.00
freq.    3003.64  E(vib)   ...       0.00
freq.    3020.75  E(vib)   ...       0.00
freq.    3027.31  E(vib)   ...       0.00
freq.    3035.77  E(vib)   ...       0.00
freq.    3039.85  E(vib)   ...       0.00
freq.    3046.07  E(vib)   ...       0.00
freq.    3051.06  E(vib)   ...       0.00
freq.    3069.03  E(vib)   ...       0.00
freq.    3078.22  E(vib)   ...       0.00
freq.    3084.76  E(vib)   ...       0.00
freq.    3091.13  E(vib)   ...       0.00
freq.    3096.57  E(vib)   ...       0.00
freq.    3111.08  E(vib)   ...       0.00
freq.    3113.73  E(vib)   ...       0.00
freq.    3147.62  E(vib)   ...       0.00

------------
INNER ENERGY
------------

The inner energy is: U= E(el) + E(ZPE) + E(vib) + E(rot) + E(trans)
    E(el)   - is the total energy from the electronic structure calculation
              = E(kin-el) + E(nuc-el) + E(el-el) + E(nuc-nuc)
    E(ZPE)  - the the zero temperature vibrational energy from the frequency calculation
    E(vib)  - the the finite temperature correction to E(ZPE) due to population
              of excited vibrational states
    E(rot)  - is the rotational thermal energy
    E(trans)- is the translational thermal energy

Summary of contributions to the inner energy U:
Electronic energy                ...   -461.21409937 Eh
Zero point energy                ...      0.24755297 Eh     155.34 kcal/mol
Thermal vibrational correction   ...      0.00683265 Eh       4.29 kcal/mol
Thermal rotational correction    ...      0.00141627 Eh       0.89 kcal/mol
Thermal translational correction ...      0.00141627 Eh       0.89 kcal/mol
-----------------------------------------------------------------------
Total thermal energy                   -460.95688121 Eh

Summary of corrections to the electronic energy:
(perhaps to be used in another calculation)
Total thermal correction                  0.00966519 Eh       6.06 kcal/mol
Non-thermal (ZPE) correction              0.24755297 Eh     155.34 kcal/mol
-----------------------------------------------------------------------
Total correction                          0.25721816 Eh     161.41 kcal/mol

--------
ENTHALPY
--------

The enthalpy is H = U + kB*T
                kB is Boltzmann's constant
Total thermal energy              ...   -460.95688121 Eh
Thermal Enthalpy correction       ...      0.00094421 Eh       0.59 kcal/mol
-----------------------------------------------------------------------
Total Enthalpy                    ...   -460.95593700 Eh

Note: Only C1 symmetry has been detected, increase convergence thresholds
      if your molecule has a higher symmetry. Symmetry factor of 1.0 is
      used for the rotational entropy correction.

Note: Rotational entropy computed according to Herzberg
Infrared and Raman Spectra, Chapter V,1, Van Nostrand Reinhold, 1945
Point Group:  C1, Symmetry Number:   1
Rotational constants in cm-1:     0.068815     0.029698     0.022944

Vibrational entropy computed according to the QRRHO of S. Grimme
Chem.Eur.J. 2012 18 9955 using a reference frequency of 100.0 cm-1

-------
ENTROPY
-------

The entropy contributions are T*S = T*(S(el)+S(vib)+S(rot)+S(trans))
     S(el)   - electronic entropy
     S(vib)  - vibrational entropy
     S(rot)  - rotational entropy
     S(trans)- translational entropy

                             ****ORCA TERMINATED NORMALLY****
TOTAL RUN TIME: 0 days 0 hours 15 minutes 19 seconds 25 msec
