                         Program Version 6.0.0  -   RELEASE  -
|  1> !r2SCAN opt aug-cc-pVTZ d3 TightSCF SlowConv RIJCOSX defgrid2
|  2>
|  3> %pal
|  4> nprocs 8
|  5> end
|  6>
|  7> %scf
|  8> MaxIter 1500
|  9> end
| 10>
| 11> %maxcore 3500
| 12>
| 13> !CPCM
| 14> %cpcm smd true
| 15> SMDsolvent "MeCN"
| 16> surfacetype gepol_ses
| 17> rsolv 2.19
| 18> end
| 19>
| 20> * xyz 0 1
| 21> C           1.36094883267894     -0.66831836744035      0.79166505304401
| 22> C           2.61668489634387     -1.26993624441883      0.83762450630671
| 23> C           3.69751463551123     -0.71498852855237      0.15220113395429
| 24> C           3.51411500210824      0.45521897470958     -0.58452696169930
| 25> C           2.26200602044100      1.06208181225052     -0.64510108123094
| 26> C           1.18681200151517      0.49836983896063      0.04263488062587
| 27> O          -0.00001482572359      1.16979071588351      0.00005454238981
| 28> C          -1.18682038085230      0.49834069380338     -0.04260530375666
| 29> C          -2.26210069770780      1.06211241497205      0.64495038697290
| 30> C          -3.51419441314783      0.45522857582203      0.58430306316011
| 31> C          -3.69749941395526     -0.71506183581738     -0.15231803955518
| 32> C          -2.61658550079969     -1.27006941979564     -0.83755825340367
| 33> C          -1.36085917884001     -0.66843361449673     -0.79152524362506
| 34> H          -0.51558365320611     -1.09715909206061     -1.33585483016717
| 35> H          -2.75062021450227     -2.18281812892327     -1.42596293506599
| 36> H          -4.68044516686291     -1.19217947086648     -0.19470697547587
| 37> H          -4.35472302990288      0.90118829684160      1.12448028512422
| 38> H          -2.09557313650778      1.97752399950586      1.21789909020225
| 39> H           2.09540249638844      1.97742680661202     -1.21813253528145
| 40> H           4.35457955862348      0.90113009122578     -1.12484535245104
| 41> H           4.68047118965145     -1.19208889118135      0.19453111833043
| 42> H           2.75079772312689     -2.18261728806241      1.42611640363857
| 43> H           0.51573555561975     -1.09698553897151      1.33613674796315
| 44> *
| 45>
| 46>                          ****END OF INPUT****
 Total Charge           Charge          ....    0
 Multiplicity           Mult            ....    1
 Number of Electrons    NEL             ....   90
Dispersion correction           -0.008273989
FINAL SINGLE POINT ENERGY      -538.420927532457
Dispersion correction             ... done (  0.1 sec)
Dispersion correction           -0.008276037
FINAL SINGLE POINT ENERGY      -538.421921721920
Dispersion correction             ... done (  0.1 sec)
Dispersion correction           -0.008284781
FINAL SINGLE POINT ENERGY      -538.422006621587
Dispersion correction             ... done (  0.1 sec)
Dispersion correction           -0.008284949
FINAL SINGLE POINT ENERGY      -538.422028950546
Dispersion correction             ... done (  0.1 sec)
Dispersion correction           -0.008290122
FINAL SINGLE POINT ENERGY      -538.422035947217
Dispersion correction             ... done (  0.1 sec)
                    ***********************HURRAY********************

CARTESIAN COORDINATES (ANGSTROEM)
---------------------------------
  C      1.354178   -0.654070    0.799487
  C      2.604385   -1.259943    0.849540
  C      3.683448   -0.719996    0.154972
  C      3.506607    0.439472   -0.594012
  C      2.260604    1.053041   -0.658883
  C      1.191710    0.498987    0.036450
  O     -0.000016    1.192883    0.000102
  C     -1.191711    0.499002   -0.036381
  C     -2.260731    1.053097    0.658746
  C     -3.506721    0.439511    0.593709
  C     -3.683438   -0.720032   -0.155186
  C     -2.604251   -1.260080   -0.849474
  C     -1.354071   -0.654173   -0.799273
  H     -0.517263   -1.069655   -1.346797
  H     -2.733802   -2.157514   -1.443117
  H     -4.654337   -1.198102   -0.200282
  H     -4.340071    0.870222    1.136310
  H     -2.107192    1.954921    1.238856
  H      2.106970    1.954836   -1.239020
  H      4.339875    0.870152   -1.136768
  H      4.654362   -1.198052    0.199970
  H      2.734063   -2.157289    1.443294
  H      0.517452   -1.069462    1.347217

 Multiplicity           Mult            ....    1
 Number of Electrons    NEL             ....   90
 Basis Dimension        Dim             ....  828

ORBITAL ENERGIES
----------------

  NO   OCC          E(Eh)            E(eV)
   0   2.0000     -19.003760      -517.1186
   1   2.0000     -10.104551      -274.9588
   2   2.0000     -10.104521      -274.9580
   3   2.0000     -10.042986      -273.2835
   4   2.0000     -10.042959      -273.2828
   5   2.0000     -10.042604      -273.2732
   6   2.0000     -10.042581      -273.2725
   7   2.0000     -10.041096      -273.2321
   8   2.0000     -10.041046      -273.2308
   9   2.0000     -10.039513      -273.1890
  10   2.0000     -10.039492      -273.1885
  11   2.0000     -10.036066      -273.0952
  12   2.0000     -10.036048      -273.0947
  13   2.0000      -1.050485       -28.5851
  14   2.0000      -0.833479       -22.6801
  15   2.0000      -0.819407       -22.2972
  16   2.0000      -0.735736       -20.0204
  17   2.0000      -0.722481       -19.6597
  18   2.0000      -0.718541       -19.5525
  19   2.0000      -0.695408       -18.9230
  20   2.0000      -0.606581       -16.5059
  21   2.0000      -0.588189       -16.0054
  22   2.0000      -0.576668       -15.6919
  23   2.0000      -0.550699       -14.9853
  24   2.0000      -0.516953       -14.0670
  25   2.0000      -0.478921       -13.0321
  26   2.0000      -0.455747       -12.4015
  27   2.0000      -0.447357       -12.1732
  28   2.0000      -0.439035       -11.9468
  29   2.0000      -0.413515       -11.2523
  30   2.0000      -0.409372       -11.1396
  31   2.0000      -0.393852       -10.7173
  32   2.0000      -0.393077       -10.6962
  33   2.0000      -0.377620       -10.2756
  34   2.0000      -0.371194       -10.1007
  35   2.0000      -0.345090        -9.3904
  36   2.0000      -0.334021        -9.0892
  37   2.0000      -0.328469        -8.9381
  38   2.0000      -0.327533        -8.9126
  39   2.0000      -0.308152        -8.3852
  40   2.0000      -0.302587        -8.2338
  41   2.0000      -0.247716        -6.7407
  42   2.0000      -0.241666        -6.5761
  43   2.0000      -0.238744        -6.4966
  44   2.0000      -0.206660        -5.6235
  45   0.0000      -0.047995        -1.3060
  46   0.0000      -0.040024        -1.0891
  47   0.0000      -0.033388        -0.9085
  48   0.0000      -0.022370        -0.6087
  49   0.0000       0.006183         0.1683

MULLIKEN ATOMIC CHARGES
-----------------------
   0 C :   -0.440605
   1 C :   -0.617220
   2 C :   -0.514518
   3 C :   -0.380952
   4 C :   -1.298998
   5 C :    1.475324
   6 O :   -0.811312
   7 C :    1.474159
   8 C :   -1.299048
   9 C :   -0.381563
  10 C :   -0.514126
  11 C :   -0.617523
  12 C :   -0.438678
  13 H :    0.521838
  14 H :    0.340790
  15 H :    0.468900
  16 H :    0.362787
  17 H :    0.487553
  18 H :    0.487648
  19 H :    0.362423
  20 H :    0.469002
  21 H :    0.340575
  22 H :    0.523545
Sum of atomic charges:    0.0000000

LOEWDIN ATOMIC CHARGES
----------------------
   0 C :    0.200535
   1 C :    0.192018
   2 C :    0.187413
   3 C :    0.185294
   4 C :    0.205469
   5 C :   -0.398035
   6 O :    0.622406
   7 C :   -0.398089
   8 C :    0.205447
   9 C :    0.185294
  10 C :    0.187427
  11 C :    0.192030
  12 C :    0.200462
  13 H :   -0.172625
  14 H :   -0.175867
  15 H :   -0.182999
  16 H :   -0.177248
  17 H :   -0.175110
  18 H :   -0.175114
  19 H :   -0.177265
  20 H :   -0.183012
  21 H :   -0.175889
  22 H :   -0.172542

  Mayer bond orders larger than 0.100000
B(  0-C ,  1-C ) :   1.0381 B(  0-C ,  2-C ) :   0.1187 B(  0-C ,  3-C ) :  -0.1271
B(  0-C ,  4-C ) :   0.4265 B(  0-C ,  5-C ) :   0.7900 B(  0-C ,  7-C ) :  -0.1223
B(  0-C , 12-C ) :   0.3170 B(  0-C , 22-H ) :   0.3603 B(  1-C ,  2-C ) :   1.1667
B(  1-C ,  4-C ) :  -0.2169 B(  1-C ,  5-C ) :  -0.3262 B(  1-C , 21-H ) :   0.8530
B(  2-C ,  3-C ) :   1.1665 B(  2-C ,  4-C ) :   0.4924 B(  2-C ,  5-C ) :  -0.1593
B(  2-C , 20-H ) :   0.5951 B(  3-C ,  4-C ) :   1.1884 B(  3-C ,  5-C ) :  -0.3491
B(  3-C , 19-H ) :   0.8004 B(  4-C ,  6-O ) :   0.1733 B(  4-C , 18-H ) :   0.2764
B(  5-C ,  6-O ) :   0.5084 B(  5-C , 12-C ) :  -0.1231 B(  5-C , 18-H ) :   0.1001
B(  6-O ,  7-C ) :   0.5084 B(  6-O ,  8-C ) :   0.1731 B(  7-C ,  9-C ) :  -0.3484
B(  7-C , 10-C ) :  -0.1594 B(  7-C , 11-C ) :  -0.3257 B(  7-C , 12-C ) :   0.7901
B(  8-C ,  9-C ) :   1.1885 B(  8-C , 10-C ) :   0.4918 B(  8-C , 11-C ) :  -0.2168
B(  8-C , 12-C ) :   0.4248 B(  8-C , 17-H ) :   0.2768 B(  9-C , 10-C ) :   1.1665
B(  9-C , 12-C ) :  -0.1271 B(  9-C , 16-H ) :   0.7996 B( 10-C , 11-C ) :   1.1668
B( 10-C , 12-C ) :   0.1178 B( 10-C , 15-H ) :   0.5954 B( 11-C , 12-C ) :   1.0380
B( 11-C , 14-H ) :   0.8523 B( 12-C , 13-H ) :   0.3621

Dispersion correction           -0.008290217
FINAL SINGLE POINT ENERGY      -538.422037486644

DIPOLE MOMENT
-------------

Method             : SCF
Type of density    : Electron Density
Multiplicity       :   1
Irrep              :   0
Energy             :  -538.4137472697943849 Eh
Relativity type    :
Basis              : AO
                                X                 Y                 Z
Electronic contribution:     -0.000586569       2.491671852       0.000302623
Nuclear contribution   :      0.000058523      -3.007823337      -0.000183103
                        -----------------------------------------
Total Dipole Moment    :     -0.000528047      -0.516151485       0.000119520
                        -----------------------------------------
Magnitude (a.u.)       :      0.516151769
Magnitude (Debye)      :      1.311953534

Rotational constants in cm-1:             0.080075             0.014568             0.013638
Rotational constants in MHz :          2400.590787           436.722989           408.848518

                             ****ORCA TERMINATED NORMALLY****
TOTAL RUN TIME: 0 days 0 hours 17 minutes 42 seconds 59 msec
