                         Program Version 6.0.0  -   RELEASE  -
|  1> !PBE0 opt aug-cc-pVTZ d3 TightSCF SlowConv RIJCOSX defgrid2
|  2>
|  3> %pal
|  4> nprocs 8
|  5> end
|  6>
|  7> %scf
|  8> MaxIter 1500
|  9> end
| 10>
| 11> %maxcore 3500
| 12>
| 13> !CPCM
| 14> %cpcm smd true
| 15> SMDsolvent "MeCN"
| 16> surfacetype gepol_ses
| 17> rsolv 2.19
| 18> end
| 19>
| 20> * xyz 0 1
| 21>   C          -1.14933226451234     -1.23882509190584     -0.00046672280380
| 22>   C          -2.50857813675911     -0.94988227106401     -0.00054346756040
| 23>   C          -2.93817015440872      0.37868475331297     -0.00006408928605
| 24>   C          -2.00629101009504      1.41668452923491      0.00049673263770
| 25>   C          -0.64374499246001      1.13250357756874      0.00056381244254
| 26>   C          -0.20908515748665     -0.19753416758703      0.00007645085547
| 27>   C           1.21837162790625     -0.59720306751016      0.00007667382631
| 28>   O           1.62341721296480     -1.71314820484524     -0.00012734829677
| 29>   Cl          2.38206247173385      0.76415186429790      0.00056602291059
| 30>   H           0.09169908378046      1.93929798920226      0.00098639048783
| 31>   H          -2.34320651232058      2.45698180479248      0.00087795608335
| 32>   H          -4.00834754942676      0.60618222514384     -0.00012604204670
| 33>   H          -3.23886079813446     -1.76401666244183     -0.00098417146236
| 34>   H          -0.79061102078168     -2.27094327819897     -0.00083749778771
| 35> *
| 36>
| 37>                          ****END OF INPUT****
 Total Charge           Charge          ....    0
 Multiplicity           Mult            ....    1
 Number of Electrons    NEL             ....   72
Dispersion correction           -0.014182083
FINAL SINGLE POINT ENERGY      -804.803311160012
Dispersion correction             ... done (  0.0 sec)
Dispersion correction           -0.014222572
FINAL SINGLE POINT ENERGY      -804.804106133419
Dispersion correction             ... done (  0.1 sec)
Dispersion correction           -0.014227572
FINAL SINGLE POINT ENERGY      -804.804167189773
Dispersion correction             ... done (  0.0 sec)
Dispersion correction           -0.014230386
FINAL SINGLE POINT ENERGY      -804.804040215417
Dispersion correction             ... done (  0.0 sec)
Dispersion correction           -0.014224560
FINAL SINGLE POINT ENERGY      -804.804199539677
Dispersion correction             ... done (  0.1 sec)
                    ***********************HURRAY********************

CARTESIAN COORDINATES (ANGSTROEM)
---------------------------------
  C     -1.152729   -1.237866   -0.000609
  C     -2.502996   -0.946400   -0.000364
  C     -2.926929    0.377262    0.000221
  C     -1.999162    1.409499    0.000073
  C     -0.644516    1.125482   -0.000386
  C     -0.216276   -0.200062   -0.000456
  C      1.197590   -0.594428    0.000179
  O      1.627631   -1.701346   -0.001022
  Cl     2.376387    0.770708    0.003415
  H      0.075830    1.931114   -0.000879
  H     -2.331222    2.439767    0.001114
  H     -3.986126    0.603622    0.000963
  H     -3.228052   -1.750234   -0.000620
  H     -0.810108   -2.264184   -0.001134

 Multiplicity           Mult            ....    1
 Number of Electrons    NEL             ....   72
 Basis Dimension        Dim             ....  533

ORBITAL ENERGIES
----------------

  NO   OCC          E(Eh)            E(eV)
   0   2.0000    -101.742648     -2768.5582
   1   2.0000     -19.238879      -523.5165
   2   2.0000     -10.380457      -282.4666
   3   2.0000     -10.262980      -279.2699
   4   2.0000     -10.248515      -278.8763
   5   2.0000     -10.247951      -278.8609
   6   2.0000     -10.244895      -278.7778
   7   2.0000     -10.239415      -278.6286
   8   2.0000     -10.239328      -278.6263
   9   2.0000      -9.545320      -259.7414
  10   2.0000      -7.279661      -198.0897
  11   2.0000      -7.273006      -197.9085
  12   2.0000      -7.271950      -197.8798
  13   2.0000      -1.127357       -30.6769
  14   2.0000      -0.909258       -24.7422
  15   2.0000      -0.873871       -23.7792
  16   2.0000      -0.801668       -21.8145
  17   2.0000      -0.787381       -21.4257
  18   2.0000      -0.676406       -18.4059
  19   2.0000      -0.640387       -17.4258
  20   2.0000      -0.589594       -16.0437
  21   2.0000      -0.547463       -14.8972
  22   2.0000      -0.508063       -13.8251
  23   2.0000      -0.495684       -13.4882
  24   2.0000      -0.471803       -12.8384
  25   2.0000      -0.464755       -12.6466
  26   2.0000      -0.463214       -12.6047
  27   2.0000      -0.447738       -12.1836
  28   2.0000      -0.398879       -10.8540
  29   2.0000      -0.382116       -10.3979
  30   2.0000      -0.366647        -9.9770
  31   2.0000      -0.344664        -9.3788
  32   2.0000      -0.342943        -9.3319
  33   2.0000      -0.313899        -8.5416
  34   2.0000      -0.288932        -7.8622
  35   2.0000      -0.283970        -7.7272
  36   0.0000      -0.078121        -2.1258
  37   0.0000      -0.020842        -0.5671
  38   0.0000      -0.001531        -0.0417
  39   0.0000       0.013642         0.3712
  40   0.0000       0.018826         0.5123

MULLIKEN ATOMIC CHARGES
-----------------------
   0 C :   -0.878264
   1 C :   -0.508846
   2 C :   -0.421224
   3 C :   -0.743938
   4 C :   -0.830250
   5 C :    1.112350
   6 C :    0.592733
   7 O :   -0.662908
   8 Cl:   -0.291121
   9 H :    0.524153
  10 H :    0.605648
  11 H :    0.604550
  12 H :    0.583547
  13 H :    0.313571
Sum of atomic charges:   -0.0000000

LOEWDIN ATOMIC CHARGES
----------------------
   0 C :    0.191464
   1 C :    0.216611
   2 C :    0.213982
   3 C :    0.213812
   4 C :    0.158712
   5 C :   -0.253182
   6 C :   -1.129525
   7 O :    0.418795
   8 Cl:    0.878950
   9 H :   -0.237102
  10 H :   -0.166131
  11 H :   -0.162437
  12 H :   -0.165911
  13 H :   -0.178038

  Mayer bond orders larger than 0.100000
B(  0-C ,  1-C ) :   1.3103 B(  0-C ,  4-C ) :  -0.1035 B(  0-C ,  5-C ) :   0.6757
B(  0-C , 13-H ) :   0.7434 B(  1-C ,  2-C ) :   1.3329 B(  1-C , 12-H ) :   0.4761
B(  2-C ,  3-C ) :   1.4066 B(  2-C ,  5-C ) :  -0.1276 B(  2-C , 11-H ) :   0.4486
B(  3-C ,  4-C ) :   1.2884 B(  3-C ,  5-C ) :  -0.1406 B(  3-C , 10-H ) :   0.4180
B(  4-C ,  5-C ) :   0.6087 B(  4-C ,  6-C ) :   0.1348 B(  4-C ,  9-H ) :   0.7134
B(  5-C ,  6-C ) :   0.6675 B(  5-C ,  7-O ) :   0.2365 B(  5-C ,  8-Cl) :   0.1007
B(  6-C ,  7-O ) :   1.1259 B(  6-C ,  8-Cl) :   0.7517 B(  7-O , 13-H ) :   0.1542
B(  8-Cl,  9-H ) :  -0.1394

Dispersion correction           -0.014223477
FINAL SINGLE POINT ENERGY      -804.804202030857

DIPOLE MOMENT
-------------

Method             : SCF
Type of density    : Electron Density
Multiplicity       :   1
Irrep              :   0
Energy             :  -804.7899785536875470 Eh
Relativity type    :
Basis              : AO
                                X                 Y                 Z
Electronic contribution:     10.803788729       0.796850137       0.007020208
Nuclear contribution   :    -12.831162912      -0.165414003      -0.007225158
                        -----------------------------------------
Total Dipole Moment    :     -2.027374183       0.631436133      -0.000204950
                        -----------------------------------------
Magnitude (a.u.)       :      2.123430646
Magnitude (Debye)      :      5.397331769

Rotational constants in cm-1:             0.105088             0.031209             0.024063
Rotational constants in MHz :          3150.461311           935.625026           721.387501

                             ****ORCA TERMINATED NORMALLY****
TOTAL RUN TIME: 0 days 0 hours 23 minutes 44 seconds 919 msec
