                         Program Version 6.0.0  -   RELEASE  -
|  1> !r2SCANh aug-cc-pVTZ d3 TightSCF SlowConv RIJCOSX defgrid2
|  2>
|  3> %pal
|  4> nprocs 4
|  5> end
|  6>
|  7> %scf
|  8> MaxIter 1500
|  9> end
| 10>
| 11> %maxcore 3000
| 12>
| 13> !CPCM
| 14> %cpcm smd true
| 15> SMDsolvent "MeCN"
| 16> surfacetype gepol_ses
| 17> rsolv 2.19
| 18> end
| 19>
| 20> * xyz -1 2
| 21> C          -1.65840506329252      1.23315632851947      0.02601526537403
| 22> C          -2.42578649114951      0.03281585518203      0.08528804223097
| 23> C          -1.67500855485910     -1.17845195322716      0.12036686377485
| 24> C          -0.29808583706699     -1.18487448797938      0.09449761529292
| 25> C           0.47768362470154      0.01218058376897      0.03640458659712
| 26> C          -0.28519866523432      1.22292049595471      0.00549364199425
| 27> H           0.23475594749759      2.18352828017466     -0.06045863687846
| 28> C           1.92437178707837      0.00115458002986      0.01100117558003
| 29> C           2.67883904782948     -1.19675573826742     -0.15101120804037
| 30> C           4.06549110019082     -1.20386096938929     -0.17390692614329
| 31> C           4.80148582635897     -0.01911609182057     -0.03832527138067
| 32> C           4.08714619159076      1.17581153913523      0.12162078849715
| 33> C           2.70053896682853      1.18836482105812      0.14598455531242
| 34> H           2.19415808930578      2.14532112879358      0.29368951522032
| 35> H           4.62811245028724      2.12283575750504      0.23701258282278
| 36> H           5.89571186828997     -0.02674525345583     -0.05713878250098
| 37> H           4.58896204524971     -2.15823787143737     -0.30821999533445
| 38> H           2.15467602469528     -2.14659846493838     -0.28283079681457
| 39> H           0.20917374243606     -2.15301705967323      0.14488479784911
| 40> H          -2.19771917366060     -2.13934491080503      0.17750905700078
| 41> C          -3.86642076140458      0.10366572155671      0.10496388365322
| 42> O          -4.50000624052699      1.17092445235144      0.07778084872509
| 43> C          -4.64653285281065     -1.20806217086235      0.16034754144994
| 44> H          -5.72082859909169     -0.96357086012156      0.16151446988558
| 45> H          -4.42797764815507     -1.85931891363364     -0.70698861916337
| 46> H          -4.41233005196803     -1.79426891356283      1.06923738121782
| 47> H          -2.21281117312006      2.17574341514422     -0.01014627622221
| 48> *
| 49>
| 50>                          ****END OF INPUT****

CARTESIAN COORDINATES (ANGSTROEM)
---------------------------------
  C     -1.658405    1.233156    0.026015
  C     -2.425786    0.032816    0.085288
  C     -1.675009   -1.178452    0.120367
  C     -0.298086   -1.184874    0.094498
  C      0.477684    0.012181    0.036405
  C     -0.285199    1.222920    0.005494
  H      0.234756    2.183528   -0.060459
  C      1.924372    0.001155    0.011001
  C      2.678839   -1.196756   -0.151011
  C      4.065491   -1.203861   -0.173907
  C      4.801486   -0.019116   -0.038325
  C      4.087146    1.175812    0.121621
  C      2.700539    1.188365    0.145985
  H      2.194158    2.145321    0.293690
  H      4.628112    2.122836    0.237013
  H      5.895712   -0.026745   -0.057139
  H      4.588962   -2.158238   -0.308220
  H      2.154676   -2.146598   -0.282831
  H      0.209174   -2.153017    0.144885
  H     -2.197719   -2.139345    0.177509
  C     -3.866421    0.103666    0.104964
  O     -4.500006    1.170924    0.077781
  C     -4.646533   -1.208062    0.160348
  H     -5.720829   -0.963571    0.161514
  H     -4.427978   -1.859319   -0.706989
  H     -4.412330   -1.794269    1.069237
  H     -2.212811    2.175743   -0.010146

 Total Charge           Charge          ....   -1
 Multiplicity           Mult            ....    2
 Number of Electrons    NEL             ....  105
 Basis Dimension        Dim             ....  966

ORBITAL ENERGIES
----------------
                 SPIN UP ORBITALS
  NO   OCC          E(Eh)            E(eV)
   0   1.0000     -19.053361      -518.4683
   1   1.0000     -10.191755      -277.3317
   2   1.0000     -10.158571      -276.4288
   3   1.0000     -10.149330      -276.1773
   4   1.0000     -10.149235      -276.1747
   5   1.0000     -10.146932      -276.1121
   6   1.0000     -10.145662      -276.0775
   7   1.0000     -10.145612      -276.0761
   8   1.0000     -10.144331      -276.0413
   9   1.0000     -10.141488      -275.9639
  10   1.0000     -10.139651      -275.9139
  11   1.0000     -10.139200      -275.9017
  12   1.0000     -10.136729      -275.8344
  13   1.0000     -10.130165      -275.6558
  14   1.0000     -10.130074      -275.6533
  15   1.0000      -0.990580       -26.9551
  16   1.0000      -0.851873       -23.1806
  17   1.0000      -0.828590       -22.5471
  18   1.0000      -0.766117       -20.8471
  19   1.0000      -0.735195       -20.0057
  20   1.0000      -0.726628       -19.7726
  21   1.0000      -0.718617       -19.5546
  22   1.0000      -0.688238       -18.7279
  23   1.0000      -0.621813       -16.9204
  24   1.0000      -0.594520       -16.1777
  25   1.0000      -0.566926       -15.4268
  26   1.0000      -0.558168       -15.1885
  27   1.0000      -0.520703       -14.1690
  28   1.0000      -0.501317       -13.6415
  29   1.0000      -0.460901       -12.5418
  30   1.0000      -0.443096       -12.0573
  31   1.0000      -0.436808       -11.8861
  32   1.0000      -0.407643       -11.0925
  33   1.0000      -0.406143       -11.0517
  34   1.0000      -0.405350       -11.0301
  35   1.0000      -0.404147       -10.9974
  36   1.0000      -0.397337       -10.8121
  37   1.0000      -0.382128       -10.3982
  38   1.0000      -0.372482       -10.1358
  39   1.0000      -0.366045        -9.9606
  40   1.0000      -0.359285        -9.7766
  41   1.0000      -0.345021        -9.3885
  42   1.0000      -0.335334        -9.1249
  43   1.0000      -0.320631        -8.7248
  44   1.0000      -0.320508        -8.7215
  45   1.0000      -0.317268        -8.6333
  46   1.0000      -0.286325        -7.7913
  47   1.0000      -0.271344        -7.3836
  48   1.0000      -0.248109        -6.7514
  49   1.0000      -0.241480        -6.5710
  50   1.0000      -0.209836        -5.7099
  51   1.0000      -0.207194        -5.6380
  52   1.0000      -0.100337        -2.7303
  53   0.0000      -0.021840        -0.5943
  54   0.0000      -0.018778        -0.5110
  55   0.0000       0.002455         0.0668
  56   0.0000       0.007148         0.1945
  57   0.0000       0.016735         0.4554

                 SPIN DOWN ORBITALS
  NO   OCC          E(Eh)            E(eV)
   0   1.0000     -19.048393      -518.3331
   1   1.0000     -10.188955      -277.2556
   2   1.0000     -10.159097      -276.4431
   3   1.0000     -10.150529      -276.2099
   4   1.0000     -10.150423      -276.2071
   5   1.0000     -10.143645      -276.0226
   6   1.0000     -10.143614      -276.0218
   7   1.0000     -10.142591      -275.9939
   8   1.0000     -10.141528      -275.9650
   9   1.0000     -10.140272      -275.9308
  10   1.0000     -10.140233      -275.9298
  11   1.0000     -10.139552      -275.9112
  12   1.0000     -10.135219      -275.7933
  13   1.0000     -10.130332      -275.6603
  14   1.0000     -10.128182      -275.6018
  15   1.0000      -0.982316       -26.7302
  16   1.0000      -0.848677       -23.0937
  17   1.0000      -0.825537       -22.4640
  18   1.0000      -0.760488       -20.6939
  19   1.0000      -0.733094       -19.9485
  20   1.0000      -0.723851       -19.6970
  21   1.0000      -0.714518       -19.4430
  22   1.0000      -0.685645       -18.6574
  23   1.0000      -0.614217       -16.7137
  24   1.0000      -0.594126       -16.1670
  25   1.0000      -0.563109       -15.3230
  26   1.0000      -0.557466       -15.1694
  27   1.0000      -0.517454       -14.0806
  28   1.0000      -0.499521       -13.5927
  29   1.0000      -0.457971       -12.4620
  30   1.0000      -0.441961       -12.0264
  31   1.0000      -0.434484       -11.8229
  32   1.0000      -0.406675       -11.0662
  33   1.0000      -0.404042       -10.9946
  34   1.0000      -0.402820       -10.9613
  35   1.0000      -0.396798       -10.7974
  36   1.0000      -0.395946       -10.7742
  37   1.0000      -0.381365       -10.3775
  38   1.0000      -0.365522        -9.9464
  39   1.0000      -0.362329        -9.8595
  40   1.0000      -0.358356        -9.7514
  41   1.0000      -0.337216        -9.1761
  42   1.0000      -0.333920        -9.0864
  43   1.0000      -0.318915        -8.6781
  44   1.0000      -0.316807        -8.6208
  45   1.0000      -0.303462        -8.2576
  46   1.0000      -0.285559        -7.7704
  47   1.0000      -0.257246        -7.0000
  48   1.0000      -0.242315        -6.5937
  49   1.0000      -0.233894        -6.3646
  50   1.0000      -0.203246        -5.5306
  51   1.0000      -0.194374        -5.2892
  52   0.0000      -0.055588        -1.5126
  53   0.0000      -0.019767        -0.5379
  54   0.0000       0.000114         0.0031
  55   0.0000       0.005108         0.1390
  56   0.0000       0.008851         0.2409

MULLIKEN ATOMIC CHARGES AND SPIN POPULATIONS
--------------------------------------------
   0 C :   -1.323875    0.117346
   1 C :    1.773612    0.130154
   2 C :   -0.799277    0.113637
   3 C :   -1.057698   -0.061522
   4 C :    2.173689    0.316935
   5 C :   -0.972723   -0.058094
   6 H :    0.037018   -0.010830
   7 C :    2.561948   -0.092134
   8 C :   -0.890326    0.179802
   9 C :   -0.958504   -0.119964
  10 C :   -0.342999    0.198894
  11 C :   -0.919257   -0.119551
  12 C :   -0.876564    0.175193
  13 H :    0.049986    0.000940
  14 H :    0.374342   -0.001532
  15 H :    0.513661   -0.007785
  16 H :    0.363693   -0.001992
  17 H :    0.019149    0.000438
  18 H :    0.061602   -0.009893
  19 H :   -0.311616   -0.010522
  20 C :    0.798474    0.124518
  21 O :   -1.102017    0.165616
  22 C :   -0.658990   -0.039503
  23 H :    0.179790   -0.004462
  24 H :    0.230009    0.014165
  25 H :    0.233656    0.013708
  26 H :   -0.156783   -0.013560
Sum of atomic charges         :   -1.0000000

LOEWDIN ATOMIC CHARGES AND SPIN POPULATIONS
-------------------------------------------
   0 C :    0.156296    0.061237
   1 C :   -0.195218    0.106838
   2 C :    0.167053    0.061385
   3 C :    0.181318    0.033923
   4 C :   -0.138946    0.117074
   5 C :    0.179327    0.030639
   6 H :   -0.207245   -0.000146
   7 C :   -0.138359    0.049291
   8 C :    0.185724    0.051536
   9 C :    0.158592    0.006505
  10 C :    0.161472    0.069545
  11 C :    0.158700    0.006668
  12 C :    0.185671    0.051219
  13 H :   -0.206088    0.012333
  14 H :   -0.177919   -0.005486
  15 H :   -0.187769    0.019232
  16 H :   -0.177864   -0.005552
  17 H :   -0.205780    0.012488
  18 H :   -0.206222    0.000875
  19 H :   -0.194252    0.010999
  20 C :   -0.647050    0.125396
  21 O :    0.377743    0.141409
  22 C :    0.520069    0.021234
  23 H :   -0.197351   -0.000576
  24 H :   -0.174560    0.005289
  25 H :   -0.174261    0.005337
  26 H :   -0.203080    0.011307

  Mayer bond orders larger than 0.100000
B(  0-C ,  1-C ) :  -0.1118 B(  0-C ,  2-C ) :  -0.4607 B(  0-C ,  4-C ) :  -0.3222
B(  0-C ,  5-C ) :   1.6299 B(  0-C , 18-H ) :  -0.2437 B(  0-C , 19-H ) :   0.1447
B(  0-C , 20-C ) :   0.1789 B(  0-C , 26-H ) :   1.5111 B(  1-C ,  3-C ) :   0.2905
B(  1-C ,  5-C ) :   0.3033 B(  1-C , 19-H ) :  -0.5489 B(  1-C , 20-C ) :   0.4757
B(  1-C , 21-O ) :   0.4240 B(  1-C , 26-H ) :  -0.3575 B(  2-C ,  3-C ) :   1.1196
B(  2-C ,  4-C ) :  -0.2675 B(  2-C ,  5-C ) :  -0.2161 B(  2-C ,  6-H ) :  -0.2334
B(  2-C , 19-H ) :   2.0128 B(  2-C , 20-C ) :   0.2132 B(  2-C , 26-H ) :   0.2020
B(  3-C ,  4-C ) :  -0.7143 B(  3-C ,  5-C ) :  -0.7983 B(  3-C ,  6-H ) :  -0.1043
B(  3-C ,  7-C ) :   0.3206 B(  3-C ,  8-C ) :  -0.1239 B(  3-C , 18-H ) :   1.4258
B(  3-C , 20-C ) :  -0.1079 B(  4-C ,  5-C ) :  -0.5970 B(  4-C ,  6-H ) :  -0.2656
B(  4-C ,  7-C ) :   0.1481 B(  4-C ,  8-C ) :   0.5873 B(  4-C ,  9-C ) :   0.1555
B(  4-C , 10-C ) :   0.1702 B(  4-C , 11-C ) :   0.1910 B(  4-C , 12-C ) :   0.4664
B(  4-C , 13-H ) :  -0.1786 B(  4-C , 17-H ) :  -0.1768 B(  4-C , 18-H ) :  -0.2115
B(  4-C , 20-C ) :   0.3044 B(  4-C , 26-H ) :  -0.1315 B(  5-C ,  6-H ) :   1.5941
B(  5-C ,  7-C ) :   0.2871 B(  5-C , 19-H ) :  -0.1135 B(  5-C , 20-C ) :  -0.1256
B(  5-C , 26-H ) :  -0.1150 B(  6-H ,  7-C ) :  -0.2090 B(  6-H , 18-H ) :   0.1289
B(  7-C ,  8-C ) :  -0.6566 B(  7-C ,  9-C ) :  -0.1833 B(  7-C , 10-C ) :  -0.2223
B(  7-C , 11-C ) :  -0.1679 B(  7-C , 12-C ) :  -0.5614 B(  7-C , 13-H ) :  -0.1219
B(  7-C , 17-H ) :  -0.1438 B(  7-C , 18-H ) :  -0.1509 B(  8-C ,  9-C ) :   1.0917
B(  8-C , 12-C ) :  -0.7281 B(  8-C , 17-H ) :   1.5620 B(  9-C , 10-C ) :   1.0378
B(  9-C , 11-C ) :   0.2702 B(  9-C , 16-H ) :   0.6884 B(  9-C , 17-H ) :  -0.1917
B( 10-C , 11-C ) :   1.0326 B( 10-C , 15-H ) :   0.5884 B( 11-C , 12-C ) :   1.1029
B( 11-C , 13-H ) :  -0.1839 B( 11-C , 14-H ) :   0.6819 B( 11-C , 17-H ) :  -0.1040
B( 12-C , 13-H ) :   1.4986 B( 12-C , 20-C ) :   0.1212 B( 13-H , 17-H ) :   0.1231
B( 13-H , 19-H ) :  -0.1392 B( 13-H , 26-H ) :  -0.1154 B( 17-H , 19-H ) :  -0.1342
B( 18-H , 20-C ) :   0.1024 B( 19-H , 20-C ) :  -0.1283 B( 19-H , 26-H ) :   0.1972
B( 20-C , 21-O ) :   0.4597 B( 20-C , 22-C ) :   0.9031 B( 21-O , 26-H ) :   0.1966
B( 22-C , 23-H ) :   0.9367 B( 22-C , 24-H ) :   0.9872 B( 22-C , 25-H ) :   0.9852

Dispersion correction           -0.010615150
FINAL SINGLE POINT ENERGY      -615.908329977602

DIPOLE MOMENT
-------------

Method             : SCF
Type of density    : Electron Density
Multiplicity       :   2
Irrep              :   0
Energy             :  -615.8977148276574098 Eh
Relativity type    :
Basis              : AO
                                X                 Y                 Z
Electronic contribution:      2.088724730       3.026152992      -0.131797371
Nuclear contribution   :      0.834188955      -4.415620198       0.130351873
                        -----------------------------------------
Total Dipole Moment    :      2.922913685      -1.389467206      -0.001445499
                        -----------------------------------------
Magnitude (a.u.)       :      3.236363023
Magnitude (Debye)      :      8.226181059

Rotational constants in cm-1:             0.074676             0.008546             0.007689
Rotational constants in MHz :          2238.715412           256.196904           230.518012

                             ****ORCA TERMINATED NORMALLY****
TOTAL RUN TIME: 0 days 0 hours 19 minutes 24 seconds 932 msec
