                         Program Version 6.0.0  -   RELEASE  -
|  1> !B3LYP aug-cc-pVTZ d3 TightSCF SlowConv RIJCOSX defgrid2
|  2>
|  3> %pal
|  4> nprocs 4
|  5> end
|  6>
|  7> %scf
|  8> MaxIter 1500
|  9> end
| 10>
| 11> %maxcore 3000
| 12>
| 13> !CPCM
| 14> %cpcm smd true
| 15> SMDsolvent "MeCN"
| 16> surfacetype gepol_ses
| 17> rsolv 2.19
| 18> end
| 19>
| 20> * xyz 0 1
| 21> C           1.90204149518375      0.85175069124874      0.29746003083239
| 22> C           1.67806327505735     -0.18007693267996     -0.61991983305632
| 23> C           2.67766384874709     -1.10217971745057     -0.88998783092066
| 24> C           3.91971539346518     -1.02243656774625     -0.24487905563433
| 25> C           4.14595550737713      0.01017707113018      0.67131493503817
| 26> C           3.14165845010563      0.94339092100850      0.92991610789907
| 27> H           3.33764385584375      1.75629242798997      1.63640783818954
| 28> H           5.10426353496277      0.11113790522407      1.18399893458188
| 29> O           4.82437427008133     -1.96808561528419     -0.57026671296603
| 30> C           6.08212467193582     -1.93604150499656      0.03937910976531
| 31> H           6.00811550930605     -2.04413775152094      1.13899316949653
| 32> H           6.62762267171733     -1.00092757885139     -0.19326138302289
| 33> H           6.64748938028465     -2.78866496010233     -0.36556594059567
| 34> H           2.51725803302919     -1.91024479956558     -1.60812631160203
| 35> H           0.71655401167501     -0.25011710230323     -1.13625291311173
| 36> S           0.67299496253335      2.05264998729490      0.77228191902236
| 37> S          -0.67289432342165      2.05290943519487     -0.77138488347598
| 38> C          -1.90204031262548      0.85198738280173     -0.29688616793200
| 39> C          -1.67813191920431     -0.18013245127198      0.62018473712761
| 40> C          -2.67779582841691     -1.10225027982985      0.88996766430274
| 41> C          -3.91983449465123     -1.02224023963496      0.24486384046698
| 42> C          -4.14600620480715      0.01066778938885     -0.67101420394572
| 43> C          -3.14164941952594      0.94389970179356     -0.92931828009062
| 44> H          -3.33757462896756      1.75703373795364     -1.63555895862120
| 45> H          -5.10430366539882      0.11184879268910     -1.18367603270811
| 46> O          -4.82454925075659     -1.96793934833253      0.56994794546651
| 47> C          -6.08228086565604     -1.93565869569194     -0.03972588010912
| 48> H          -6.00824247611482     -2.04342740943553     -1.13936995580242
| 49> H          -6.64769241955313     -2.78837951769747      0.36494669506615
| 50> H          -6.62774680598541     -1.00059156129990      0.19317765994923
| 51> H          -2.51744986321001     -1.91054439699301      1.60786208700731
| 52> H          -0.71663329301036     -0.25039391302994      1.13650706938306
| 53> *
| 54>
| 55>                          ****END OF INPUT****

CARTESIAN COORDINATES (ANGSTROEM)
---------------------------------
  C      1.902041    0.851751    0.297460
  C      1.678063   -0.180077   -0.619920
  C      2.677664   -1.102180   -0.889988
  C      3.919715   -1.022437   -0.244879
  C      4.145956    0.010177    0.671315
  C      3.141658    0.943391    0.929916
  H      3.337644    1.756292    1.636408
  H      5.104264    0.111138    1.183999
  O      4.824374   -1.968086   -0.570267
  C      6.082125   -1.936042    0.039379
  H      6.008116   -2.044138    1.138993
  H      6.627623   -1.000928   -0.193261
  H      6.647489   -2.788665   -0.365566
  H      2.517258   -1.910245   -1.608126
  H      0.716554   -0.250117   -1.136253
  S      0.672995    2.052650    0.772282
  S     -0.672894    2.052909   -0.771385
  C     -1.902040    0.851987   -0.296886
  C     -1.678132   -0.180132    0.620185
  C     -2.677796   -1.102250    0.889968
  C     -3.919834   -1.022240    0.244864
  C     -4.146006    0.010668   -0.671014
  C     -3.141649    0.943900   -0.929318
  H     -3.337575    1.757034   -1.635559
  H     -5.104304    0.111849   -1.183676
  O     -4.824549   -1.967939    0.569948
  C     -6.082281   -1.935659   -0.039726
  H     -6.008242   -2.043427   -1.139370
  H     -6.647692   -2.788380    0.364947
  H     -6.627747   -1.000592    0.193178
  H     -2.517450   -1.910544    1.607862
  H     -0.716633   -0.250394    1.136507

 Total Charge           Charge          ....    0
 Multiplicity           Mult            ....    1
 Number of Electrons    NEL             ....  146
 Basis Dimension        Dim             .... 1158

ORBITAL ENERGIES
----------------

  NO   OCC          E(Eh)            E(eV)
   0   2.0000     -88.918167     -2419.5863
   1   2.0000     -88.918165     -2419.5863
   2   2.0000     -19.162115      -521.4277
   3   2.0000     -19.162115      -521.4276
   4   2.0000     -10.238507      -278.6039
   5   2.0000     -10.238505      -278.6039
   6   2.0000     -10.215213      -277.9701
   7   2.0000     -10.215213      -277.9701
   8   2.0000     -10.207114      -277.7497
   9   2.0000     -10.207110      -277.7496
  10   2.0000     -10.185619      -277.1648
  11   2.0000     -10.185618      -277.1648
  12   2.0000     -10.184216      -277.1266
  13   2.0000     -10.184216      -277.1266
  14   2.0000     -10.178733      -276.9774
  15   2.0000     -10.178730      -276.9773
  16   2.0000     -10.177521      -276.9444
  17   2.0000     -10.177520      -276.9444
  18   2.0000      -7.967094      -216.7956
  19   2.0000      -7.967009      -216.7933
  20   2.0000      -5.932251      -161.4248
  21   2.0000      -5.931983      -161.4175
  22   2.0000      -5.927872      -161.3056
  23   2.0000      -5.927827      -161.3044
  24   2.0000      -5.922451      -161.1581
  25   2.0000      -5.922451      -161.1581
  26   2.0000      -1.078021       -29.3345
  27   2.0000      -1.078021       -29.3344
  28   2.0000      -0.873767       -23.7764
  29   2.0000      -0.864325       -23.5195
  30   2.0000      -0.818736       -22.2789
  31   2.0000      -0.776336       -21.1252
  32   2.0000      -0.757626       -20.6160
  33   2.0000      -0.752859       -20.4863
  34   2.0000      -0.740924       -20.1616
  35   2.0000      -0.709841       -19.3158
  36   2.0000      -0.685369       -18.6498
  37   2.0000      -0.644479       -17.5372
  38   2.0000      -0.619268       -16.8511
  39   2.0000      -0.615796       -16.7567
  40   2.0000      -0.587333       -15.9821
  41   2.0000      -0.570676       -15.5289
  42   2.0000      -0.537797       -14.6342
  43   2.0000      -0.534035       -14.5318
  44   2.0000      -0.497549       -13.5390
  45   2.0000      -0.488812       -13.3013
  46   2.0000      -0.478338       -13.0162
  47   2.0000      -0.468413       -12.7462
  48   2.0000      -0.468378       -12.7452
  49   2.0000      -0.452767       -12.3204
  50   2.0000      -0.449970       -12.2443
  51   2.0000      -0.445121       -12.1123
  52   2.0000      -0.426118       -11.5953
  53   2.0000      -0.425637       -11.5822
  54   2.0000      -0.419297       -11.4096
  55   2.0000      -0.412933       -11.2365
  56   2.0000      -0.392729       -10.6867
  57   2.0000      -0.389591       -10.6013
  58   2.0000      -0.379432       -10.3249
  59   2.0000      -0.366562        -9.9747
  60   2.0000      -0.361393        -9.8340
  61   2.0000      -0.359905        -9.7935
  62   2.0000      -0.338316        -9.2060
  63   2.0000      -0.335598        -9.1321
  64   2.0000      -0.335549        -9.1308
  65   2.0000      -0.328081        -8.9275
  66   2.0000      -0.327317        -8.9068
  67   2.0000      -0.276126        -7.5138
  68   2.0000      -0.275237        -7.4896
  69   2.0000      -0.265485        -7.2242
  70   2.0000      -0.261980        -7.1288
  71   2.0000      -0.215741        -5.8706
  72   2.0000      -0.207973        -5.6592
  73   0.0000      -0.036344        -0.9890
  74   0.0000      -0.025207        -0.6859
  75   0.0000      -0.017512        -0.4765
  76   0.0000      -0.010371        -0.2822
  77   0.0000      -0.004153        -0.1130

MULLIKEN ATOMIC CHARGES
-----------------------
   0 C :    1.010039
   1 C :   -0.216711
   2 C :   -1.286980
   3 C :    1.231124
   4 C :   -0.167246
   5 C :   -1.151012
   6 H :    0.364725
   7 H :    0.371004
   8 O :   -0.686611
   9 C :   -0.668202
  10 H :    0.285009
  11 H :    0.280243
  12 H :    0.229548
  13 H :    0.337859
  14 H :    0.440541
  15 S :   -0.372527
  16 S :   -0.371037
  17 C :    1.007318
  18 C :   -0.209693
  19 C :   -1.278017
  20 C :    1.233708
  21 C :   -0.172911
  22 C :   -1.155801
  23 H :    0.370414
  24 H :    0.365078
  25 O :   -0.685943
  26 C :   -0.670086
  27 H :    0.286168
  28 H :    0.228057
  29 H :    0.281606
  30 H :    0.336470
  31 H :    0.433866
Sum of atomic charges:   -0.0000000

LOEWDIN ATOMIC CHARGES
----------------------
   0 C :   -0.591418
   1 C :    0.084255
   2 C :    0.196494
   3 C :   -0.404304
   4 C :    0.194753
   5 C :    0.092969
   6 H :   -0.183217
   7 H :   -0.184944
   8 O :    0.592563
   9 C :    0.312564
  10 H :   -0.158359
  11 H :   -0.158307
  12 H :   -0.168140
  13 H :   -0.166511
  14 H :   -0.230224
  15 S :    0.771820
  16 S :    0.771831
  17 C :   -0.591424
  18 C :    0.084260
  19 C :    0.196499
  20 C :   -0.404304
  21 C :    0.194750
  22 C :    0.092958
  23 H :   -0.183215
  24 H :   -0.184947
  25 O :    0.592566
  26 C :    0.312564
  27 H :   -0.158356
  28 H :   -0.168142
  29 H :   -0.158308
  30 H :   -0.166510
  31 H :   -0.230218

  Mayer bond orders larger than 0.100000
B(  0-C ,  1-C ) :   0.7464 B(  0-C ,  4-C ) :   0.1065 B(  0-C ,  5-C ) :   0.8589
B(  0-C , 15-S ) :   0.5350 B(  0-C , 17-C ) :   0.1317 B(  1-C ,  2-C ) :   0.7490
B(  1-C ,  3-C ) :  -0.1074 B(  1-C ,  4-C ) :  -0.1608 B(  1-C ,  5-C ) :  -0.1586
B(  1-C ,  8-O ) :   0.1369 B(  1-C , 14-H ) :   0.7160 B(  2-C ,  3-C ) :   0.7379
B(  2-C ,  4-C ) :   0.1165 B(  2-C ,  5-C ) :   0.1797 B(  2-C ,  8-O ) :   0.3119
B(  2-C , 13-H ) :   0.7686 B(  2-C , 14-H ) :  -0.1043 B(  3-C ,  4-C ) :   0.9381
B(  3-C ,  5-C ) :  -0.1140 B(  3-C ,  8-O ) :   0.2348 B(  4-C ,  5-C ) :   0.9725
B(  4-C ,  7-H ) :   0.6727 B(  4-C ,  8-O ) :  -0.1741 B(  4-C ,  9-C ) :  -0.1472
B(  5-C ,  6-H ) :   0.7057 B(  8-O ,  9-C ) :   1.0030 B(  9-C , 10-H ) :   0.9124
B(  9-C , 11-H ) :   0.9169 B(  9-C , 12-H ) :   0.9866 B( 14-H , 16-S ) :  -0.1062
B( 15-S , 16-S ) :   1.0663 B( 15-S , 31-H ) :  -0.1024 B( 16-S , 17-C ) :   0.5433
B( 17-C , 18-C ) :   0.7572 B( 17-C , 22-C ) :   0.8559 B( 18-C , 19-C ) :   0.7468
B( 18-C , 20-C ) :  -0.1083 B( 18-C , 21-C ) :  -0.1597 B( 18-C , 22-C ) :  -0.1629
B( 18-C , 25-O ) :   0.1342 B( 18-C , 31-H ) :   0.7191 B( 19-C , 20-C ) :   0.7375
B( 19-C , 21-C ) :   0.1169 B( 19-C , 22-C ) :   0.1747 B( 19-C , 25-O ) :   0.3041
B( 19-C , 30-H ) :   0.7682 B( 19-C , 31-H ) :  -0.1048 B( 20-C , 21-C ) :   0.9396
B( 20-C , 22-C ) :  -0.1098 B( 20-C , 25-O ) :   0.2327 B( 21-C , 22-C ) :   0.9752
B( 21-C , 24-H ) :   0.6779 B( 21-C , 25-O ) :  -0.1692 B( 21-C , 26-C ) :  -0.1478
B( 22-C , 23-H ) :   0.6958 B( 25-O , 26-C ) :   1.0026 B( 26-C , 27-H ) :   0.9112
B( 26-C , 28-H ) :   0.9890 B( 26-C , 29-H ) :   0.9148

Dispersion correction           -0.072586274
FINAL SINGLE POINT ENERGY     -1488.598103343242

DIPOLE MOMENT
-------------

Method             : SCF
Type of density    : Electron Density
Multiplicity       :   1
Irrep              :   0
Energy             : -1488.5255170691596049 Eh
Relativity type    :
Basis              : AO
                                X                 Y                 Z
Electronic contribution:      0.000352870      10.761429061       0.001722500
Nuclear contribution   :     -0.000353672     -11.568109553      -0.001837843
                        -----------------------------------------
Total Dipole Moment    :     -0.000000802      -0.806680491      -0.000115343
                        -----------------------------------------
Magnitude (a.u.)       :      0.806680500
Magnitude (Debye)      :      2.050418881

Rotational constants in cm-1:             0.022512             0.004846             0.004251
Rotational constants in MHz :           674.890480           145.282347           127.443489

                             ****ORCA TERMINATED NORMALLY****
TOTAL RUN TIME: 0 days 0 hours 19 minutes 37 seconds 327 msec
