                         Program Version 6.0.0  -   RELEASE  -
|  1> !r2SCAN aug-cc-pVTZ d3 TightSCF SlowConv RIJCOSX defgrid2
|  2>
|  3> %pal
|  4> nprocs 4
|  5> end
|  6>
|  7> %scf
|  8> MaxIter 1500
|  9> end
| 10>
| 11> %maxcore 3000
| 12>
| 13> !CPCM
| 14> %cpcm smd true
| 15> SMDsolvent "MeCN"
| 16> surfacetype gepol_ses
| 17> rsolv 2.19
| 18> end
| 19>
| 20> * xyz -1 2
| 21> C          -1.22535307927293     -0.03882807002799     -0.00002255469277
| 22> C          -1.22206264378164      1.41582015720061     -0.00002423880206
| 23> C           0.00004637420421      2.08121905033007     -0.00000415463824
| 24> C           1.22212161683371      1.41575862792076      0.00002170232485
| 25> C           1.22534433396412     -0.03888819251674      0.00002507087618
| 26> C          -0.00002135567409     -0.71608207495025      0.00000157424078
| 27> H          -0.00004774645346     -1.81053735349218      0.00000261550832
| 28> C           2.43402384370652     -0.77080587803239      0.00007579493229
| 29> N           3.44413671726320     -1.36247120639636      0.00011250089172
| 30> H           2.16848850432676      1.96074544120089      0.00003301965359
| 31> H           0.00007494156619      3.17901522614598     -0.00000842096167
| 32> H          -2.16840192148197      1.96085605610510     -0.00003754989011
| 33> C          -2.43406244869294     -0.77069683887805     -0.00005052688718
| 34> N          -3.44419623650770     -1.36232524460946     -0.00007393255569
| 35> *
| 36>
| 37>                          ****END OF INPUT****

CARTESIAN COORDINATES (ANGSTROEM)
---------------------------------
  C     -1.225353   -0.038828   -0.000023
  C     -1.222063    1.415820   -0.000024
  C      0.000046    2.081219   -0.000004
  C      1.222122    1.415759    0.000022
  C      1.225344   -0.038888    0.000025
  C     -0.000021   -0.716082    0.000002
  H     -0.000048   -1.810537    0.000003
  C      2.434024   -0.770806    0.000076
  N      3.444137   -1.362471    0.000113
  H      2.168489    1.960745    0.000033
  H      0.000075    3.179015   -0.000008
  H     -2.168402    1.960856   -0.000038
  C     -2.434062   -0.770697   -0.000051
  N     -3.444196   -1.362325   -0.000074

 Total Charge           Charge          ....   -1
 Multiplicity           Mult            ....    2
 Number of Electrons    NEL             ....   67
 Basis Dimension        Dim             ....  552

ORBITAL ENERGIES
----------------
                 SPIN UP ORBITALS
  NO   OCC          E(Eh)            E(eV)
   0   1.0000     -14.143270      -384.8579
   1   1.0000     -14.143268      -384.8579
   2   1.0000     -10.064539      -273.8700
   3   1.0000     -10.064534      -273.8699
   4   1.0000     -10.054312      -273.5917
   5   1.0000     -10.054235      -273.5896
   6   1.0000     -10.052881      -273.5528
   7   1.0000     -10.031050      -272.9588
   8   1.0000     -10.026039      -272.8224
   9   1.0000     -10.026028      -272.8221
  10   1.0000      -0.860696       -23.4207
  11   1.0000      -0.857390       -23.3308
  12   1.0000      -0.813421       -22.1343
  13   1.0000      -0.730036       -19.8653
  14   1.0000      -0.718590       -19.5538
  15   1.0000      -0.606126       -16.4935
  16   1.0000      -0.592077       -16.1112
  17   1.0000      -0.526026       -14.3139
  18   1.0000      -0.448529       -12.2051
  19   1.0000      -0.440721       -11.9926
  20   1.0000      -0.417129       -11.3506
  21   1.0000      -0.387014       -10.5312
  22   1.0000      -0.370721       -10.0878
  23   1.0000      -0.339670        -9.2429
  24   1.0000      -0.337743        -9.1904
  25   1.0000      -0.336461        -9.1556
  26   1.0000      -0.322295        -8.7701
  27   1.0000      -0.321905        -8.7595
  28   1.0000      -0.300896        -8.1878
  29   1.0000      -0.294752        -8.0206
  30   1.0000      -0.288815        -7.8590
  31   1.0000      -0.238687        -6.4950
  32   1.0000      -0.232875        -6.3369
  33   1.0000      -0.092208        -2.5091
  34   0.0000      -0.055121        -1.4999
  35   0.0000       0.000314         0.0085
  36   0.0000       0.004422         0.1203
  37   0.0000       0.013871         0.3775
  38   0.0000       0.022984         0.6254

                 SPIN DOWN ORBITALS
  NO   OCC          E(Eh)            E(eV)
   0   1.0000     -14.140981      -384.7957
   1   1.0000     -14.140979      -384.7956
   2   1.0000     -10.064304      -273.8636
   3   1.0000     -10.064299      -273.8635
   4   1.0000     -10.053645      -273.5736
   5   1.0000     -10.052552      -273.5438
   6   1.0000     -10.052476      -273.5418
   7   1.0000     -10.033480      -273.0249
   8   1.0000     -10.019463      -272.6434
   9   1.0000     -10.019461      -272.6434
  10   1.0000      -0.857288       -23.3280
  11   1.0000      -0.854156       -23.2428
  12   1.0000      -0.808665       -22.0049
  13   1.0000      -0.721606       -19.6359
  14   1.0000      -0.714760       -19.4496
  15   1.0000      -0.592113       -16.1122
  16   1.0000      -0.590177       -16.0595
  17   1.0000      -0.525473       -14.2989
  18   1.0000      -0.443186       -12.0597
  19   1.0000      -0.438652       -11.9363
  20   1.0000      -0.414937       -11.2910
  21   1.0000      -0.386458       -10.5160
  22   1.0000      -0.358840        -9.7645
  23   1.0000      -0.336335        -9.1521
  24   1.0000      -0.333394        -9.0721
  25   1.0000      -0.327372        -8.9082
  26   1.0000      -0.320842        -8.7306
  27   1.0000      -0.318944        -8.6789
  28   1.0000      -0.293591        -7.9890
  29   1.0000      -0.289137        -7.8678
  30   1.0000      -0.287536        -7.8243
  31   1.0000      -0.231698        -6.3048
  32   1.0000      -0.206850        -5.6287
  33   0.0000      -0.052189        -1.4201
  34   0.0000      -0.051290        -1.3957
  35   0.0000       0.002134         0.0581
  36   0.0000       0.006847         0.1863
  37   0.0000       0.016230         0.4416

MULLIKEN ATOMIC CHARGES AND SPIN POPULATIONS
--------------------------------------------
   0 C :    1.410038    0.102315
   1 C :   -0.927059    0.466448
   2 C :   -0.478486   -0.214993
   3 C :   -0.927057    0.466450
   4 C :    1.410043    0.102321
   5 C :   -1.129945   -0.038126
   6 H :   -0.225995    0.004460
   7 C :    0.459418   -0.014634
   8 N :   -0.893126    0.098630
   9 H :    0.127633   -0.012325
  10 H :    0.480604   -0.032219
  11 H :    0.127657   -0.012327
  12 C :    0.459401   -0.014627
  13 N :   -0.893125    0.098628
Sum of atomic charges         :   -1.0000000

LOEWDIN ATOMIC CHARGES AND SPIN POPULATIONS
-------------------------------------------
   0 C :   -0.257192    0.101525
   1 C :    0.155027    0.200546
   2 C :    0.125857    0.050916
   3 C :    0.155023    0.200544
   4 C :   -0.257194    0.101526
   5 C :    0.139261    0.017119
   6 H :   -0.167222    0.000111
   7 C :   -0.322862    0.046441
   8 N :    0.164989    0.075484
   9 H :   -0.198371    0.046173
  10 H :   -0.181073   -0.008483
  11 H :   -0.198370    0.046173
  12 C :   -0.322861    0.046440
  13 N :    0.164989    0.075483

  Mayer bond orders larger than 0.100000
B(  0-C ,  1-C ) :  -0.1072 B(  0-C ,  2-C ) :   0.2337 B(  0-C ,  4-C ) :   0.5015
B(  0-C ,  5-C ) :   0.3256 B(  0-C ,  6-H ) :  -0.2650 B(  0-C , 11-H ) :  -0.1821
B(  0-C , 12-C ) :   0.7130 B(  0-C , 13-N ) :   0.1656 B(  1-C ,  2-C ) :   1.0955
B(  1-C ,  3-C ) :  -0.1195 B(  1-C ,  5-C ) :  -0.2330 B(  1-C , 11-H ) :   1.2247
B(  1-C , 12-C ) :   0.4001 B(  2-C ,  3-C ) :   1.0955 B(  2-C ,  4-C ) :   0.2337
B(  2-C ,  6-H ) :  -0.1066 B(  2-C ,  9-H ) :  -0.1365 B(  2-C , 10-H ) :   0.6470
B(  2-C , 11-H ) :  -0.1365 B(  3-C ,  4-C ) :  -0.1072 B(  3-C ,  5-C ) :  -0.2330
B(  3-C ,  7-C ) :   0.4001 B(  3-C ,  9-H ) :   1.2248 B(  4-C ,  5-C ) :   0.3256
B(  4-C ,  6-H ) :  -0.2650 B(  4-C ,  7-C ) :   0.7130 B(  4-C ,  8-N ) :   0.1656
B(  4-C ,  9-H ) :  -0.1821 B(  5-C ,  6-H ) :   1.7369 B(  5-C ,  7-C ) :   0.1724
B(  5-C ,  8-N ) :   0.1079 B(  5-C ,  9-H ) :   0.1321 B(  5-C , 11-H ) :   0.1321
B(  5-C , 12-C ) :   0.1724 B(  5-C , 13-N ) :   0.1079 B(  6-H ,  9-H ) :   0.1048
B(  6-H , 11-H ) :   0.1047 B(  7-C ,  8-N ) :   1.6002 B(  7-C , 12-C ) :   0.2547
B( 12-C , 13-N ) :   1.6002

Dispersion correction           -0.004793198
FINAL SINGLE POINT ENERGY      -416.757709659084

DIPOLE MOMENT
-------------

Method             : SCF
Type of density    : Electron Density
Multiplicity       :   2
Irrep              :   0
Energy             :  -416.7529164608217229 Eh
Relativity type    :
Basis              : AO
                                X                 Y                 Z
Electronic contribution:     -0.000103416      -3.104771664       0.000009738
Nuclear contribution   :      0.000114608       5.003113123      -0.000033044
                        -----------------------------------------
Total Dipole Moment    :      0.000011193       1.898341459      -0.000023306
                        -----------------------------------------
Magnitude (a.u.)       :      1.898341459
Magnitude (Debye)      :      4.825200524

Rotational constants in cm-1:             0.086960             0.030317             0.022480
Rotational constants in MHz :          2607.004234           908.865871           673.920567

                             ****ORCA TERMINATED NORMALLY****
TOTAL RUN TIME: 0 days 0 hours 3 minutes 14 seconds 120 msec
