                         Program Version 6.0.0  -   RELEASE  -
|  1> !PBE0 aug-cc-pVTZ d3 TightSCF SlowConv RIJCOSX defgrid2
|  2>
|  3> %pal
|  4> nprocs 15
|  5> end
|  6>
|  7> %scf
|  8> MaxIter 1500
|  9> end
| 10>
| 11> %maxcore 3500
| 12>
| 13> !CPCM
| 14> %cpcm smd true
| 15> SMDsolvent "WATER"
| 16> surfacetype gepol_ses
| 17> rsolv 1.40
| 18> end
| 19>
| 20> * xyz 0 1
| 21> C           0.05740703362366     -0.03818478987782     -0.05305252362433
| 22> C           0.04752787284548      1.43042672917474      0.09288134793546
| 23> C           0.00865823360556      2.06419843064535      1.28313969477442
| 24> C          -0.02631367755515      1.27331877582174      2.55115567713606
| 25> C          -0.01924382659142     -0.21029957823671      2.44828393846160
| 26> C           0.02139111377803     -0.84476466741681      1.19738932390815
| 27> C           0.02778920782920     -2.23769356254970      1.12126987378335
| 28> C          -0.00634981044020     -2.99663523812184      2.28791660064124
| 29> C          -0.04698344076028     -2.36584188207955      3.53454063211562
| 30> C          -0.05333228207351     -0.97623991811648      3.61522849103236
| 31> H           0.07423269005991      1.98647405476100     -0.84970518486997
| 32> H          -0.08462573760684     -0.45717520913165      4.57653406994510
| 33> H          -0.07388405763115     -2.96530465276422      4.44922462797787
| 34> H          -0.00147351819034     -4.08899982107002      2.22872595641621
| 35> H           0.05990452710164     -2.70205720690776      0.13238845062488
| 36> C          -0.00206079517557      3.54702899649423      1.43475658835013
| 37> H          -0.90223963443982      3.87118144099815      1.98551534688661
| 38> H           0.85990766484548      3.87826240212472      2.03977796655726
| 39> H           0.02634952855796      4.05066472850984      0.45627956358589
| 40> O          -0.05966185780097      1.83961965072649      3.62552534412724
| 41> O           0.09300076601833     -0.55701475298369     -1.15202852476517
| 42> *
| 43>
| 44>                          ****END OF INPUT****

CARTESIAN COORDINATES (ANGSTROEM)
---------------------------------
  C      0.057407   -0.038185   -0.053053
  C      0.047528    1.430427    0.092881
  C      0.008658    2.064198    1.283140
  C     -0.026314    1.273319    2.551156
  C     -0.019244   -0.210300    2.448284
  C      0.021391   -0.844765    1.197389
  C      0.027789   -2.237694    1.121270
  C     -0.006350   -2.996635    2.287917
  C     -0.046983   -2.365842    3.534541
  C     -0.053332   -0.976240    3.615228
  H      0.074233    1.986474   -0.849705
  H     -0.084626   -0.457175    4.576534
  H     -0.073884   -2.965305    4.449225
  H     -0.001474   -4.089000    2.228726
  H      0.059905   -2.702057    0.132388
  C     -0.002061    3.547029    1.434757
  H     -0.902240    3.871181    1.985515
  H      0.859908    3.878262    2.039778
  H      0.026350    4.050665    0.456280
  O     -0.059662    1.839620    3.625525
  O      0.093001   -0.557015   -1.152029

 Total Charge           Charge          ....    0
 Multiplicity           Mult            ....    1
 Number of Electrons    NEL             ....   90
 Basis Dimension        Dim             ....  782

ORBITAL ENERGIES
----------------

  NO   OCC          E(Eh)            E(eV)
   0   2.0000     -19.221721      -523.0496
   1   2.0000     -19.218891      -522.9726
   2   2.0000     -10.335258      -281.2367
   3   2.0000     -10.333476      -281.1882
   4   2.0000     -10.271832      -279.5108
   5   2.0000     -10.258559      -279.1496
   6   2.0000     -10.257657      -279.1250
   7   2.0000     -10.252661      -278.9891
   8   2.0000     -10.248567      -278.8777
   9   2.0000     -10.248329      -278.8712
  10   2.0000     -10.247749      -278.8554
  11   2.0000     -10.247241      -278.8416
  12   2.0000     -10.224857      -278.2325
  13   2.0000      -1.098768       -29.8990
  14   2.0000      -1.095225       -29.8026
  15   2.0000      -0.910202       -24.7679
  16   2.0000      -0.864455       -23.5230
  17   2.0000      -0.801404       -21.8073
  18   2.0000      -0.794661       -21.6238
  19   2.0000      -0.743352       -20.2276
  20   2.0000      -0.698380       -19.0039
  21   2.0000      -0.659010       -17.9326
  22   2.0000      -0.633514       -17.2388
  23   2.0000      -0.598984       -16.2992
  24   2.0000      -0.556670       -15.1478
  25   2.0000      -0.537435       -14.6244
  26   2.0000      -0.513190       -13.9646
  27   2.0000      -0.483387       -13.1536
  28   2.0000      -0.478984       -13.0338
  29   2.0000      -0.471846       -12.8396
  30   2.0000      -0.463931       -12.6242
  31   2.0000      -0.454536       -12.3685
  32   2.0000      -0.438547       -11.9335
  33   2.0000      -0.433733       -11.8025
  34   2.0000      -0.420340       -11.4380
  35   2.0000      -0.417018       -11.3476
  36   2.0000      -0.398872       -10.8539
  37   2.0000      -0.387776       -10.5519
  38   2.0000      -0.382766       -10.4156
  39   2.0000      -0.370119       -10.0715
  40   2.0000      -0.305305        -8.3078
  41   2.0000      -0.301514        -8.2046
  42   2.0000      -0.285608        -7.7718
  43   2.0000      -0.284462        -7.7406
  44   2.0000      -0.282213        -7.6794
  45   0.0000      -0.117878        -3.2076
  46   0.0000      -0.046989        -1.2786
  47   0.0000      -0.021246        -0.5781
  48   0.0000       0.001907         0.0519
  49   0.0000       0.012123         0.3299

MULLIKEN ATOMIC CHARGES
-----------------------
   0 C :    1.226202
   1 C :   -0.657925
   2 C :    0.143435
   3 C :    0.905574
   4 C :    1.174072
   5 C :    0.829038
   6 C :   -1.203914
   7 C :   -0.489810
   8 C :   -0.466306
   9 C :   -1.423139
  10 H :    0.385735
  11 H :    0.236432
  12 H :    0.728277
  13 H :    0.681544
  14 H :    0.188950
  15 C :   -0.758708
  16 H :    0.264654
  17 H :    0.262507
  18 H :    0.242852
  19 O :   -1.136644
  20 O :   -1.132825
Sum of atomic charges:    0.0000000

LOEWDIN ATOMIC CHARGES
----------------------
   0 C :   -0.553168
   1 C :    0.250666
   2 C :   -0.101659
   3 C :   -0.520588
   4 C :   -0.117026
   5 C :   -0.123276
   6 C :    0.217957
   7 C :    0.224873
   8 C :    0.225023
   9 C :    0.218814
  10 H :   -0.160244
  11 H :   -0.170456
  12 H :   -0.155852
  13 H :   -0.155698
  14 H :   -0.170038
  15 C :    0.567845
  16 H :   -0.151422
  17 H :   -0.151572
  18 H :   -0.155497
  19 O :    0.507226
  20 O :    0.474092

  Mayer bond orders larger than 0.100000
B(  0-C ,  1-C ) :   0.7232 B(  0-C ,  5-C ) :   0.4112 B(  0-C ,  6-C ) :   0.4643
B(  0-C ,  8-C ) :   0.1034 B(  0-C ,  9-C ) :  -0.1153 B(  0-C , 10-H ) :  -0.1479
B(  1-C ,  2-C ) :   1.5371 B(  1-C ,  3-C ) :  -0.1304 B(  1-C ,  4-C ) :  -0.1472
B(  1-C ,  5-C ) :   0.3127 B(  1-C , 10-H ) :   0.5510 B(  1-C , 15-C ) :  -0.2992
B(  1-C , 20-O ) :   0.2394 B(  2-C ,  3-C ) :   0.6648 B(  2-C ,  4-C ) :   0.4971
B(  2-C ,  5-C ) :  -0.1902 B(  2-C , 15-C ) :   0.7094 B(  2-C , 19-O ) :   0.1522
B(  2-C , 20-O ) :   0.1386 B(  3-C ,  4-C ) :   0.5098 B(  3-C ,  5-C ) :   0.1459
B(  3-C ,  6-C ) :  -0.1561 B(  3-C ,  9-C ) :   0.5017 B(  3-C , 15-C ) :   0.2646
B(  3-C , 19-O ) :   0.2128 B(  4-C ,  5-C ) :   1.1010 B(  4-C ,  6-C ) :  -0.4874
B(  4-C ,  7-C ) :  -0.1749 B(  4-C ,  8-C ) :  -0.1436 B(  5-C ,  6-C ) :   0.3563
B(  5-C ,  9-C ) :  -0.2147 B(  5-C , 10-H ) :   0.1204 B(  5-C , 20-O ) :   0.2080
B(  6-C ,  7-C ) :   1.2738 B(  6-C ,  9-C ) :   0.1194 B(  6-C , 13-H ) :  -0.1518
B(  6-C , 14-H ) :   0.9857 B(  7-C ,  8-C ) :   1.3427 B(  7-C , 13-H ) :   0.2452
B(  8-C ,  9-C ) :   1.3135 B(  8-C , 12-H ) :   0.1763 B(  9-C , 11-H ) :   0.8560
B(  9-C , 12-H ) :  -0.1519 B(  9-C , 19-O ) :   0.1291 B( 10-H , 20-O ) :   0.1410
B( 11-H , 19-O ) :   0.2797 B( 14-H , 20-O ) :   0.2623 B( 15-C , 16-H ) :   0.9224
B( 15-C , 17-H ) :   0.9243 B( 15-C , 18-H ) :   0.9587

Dispersion correction           -0.022789969
FINAL SINGLE POINT ENERGY      -574.004749474103

DIPOLE MOMENT
-------------

Method             : SCF
Type of density    : Electron Density
Multiplicity       :   1
Irrep              :   0
Energy             :  -573.9819595049197005 Eh
Relativity type    :
Basis              : AO
                                X                 Y                 Z
Electronic contribution:      0.045262203      -3.295703630      -0.924981892
Nuclear contribution   :     -0.064708602       3.027549454       1.475829711
                        -----------------------------------------
Total Dipole Moment    :     -0.019446398      -0.268154176       0.550847819
                        -----------------------------------------
Magnitude (a.u.)       :      0.612958518
Magnitude (Debye)      :      1.558016734

Rotational constants in cm-1:             0.042977             0.025752             0.016151
Rotational constants in MHz :          1288.412736           772.037278           484.209235

                             ****ORCA TERMINATED NORMALLY****
TOTAL RUN TIME: 0 days 0 hours 4 minutes 20 seconds 663 msec
