                         Program Version 6.0.0  -   RELEASE  -
|  1> !TPSSh freq aug-cc-pVTZ d3 TightSCF SlowConv RIJCOSX defgrid2
|  2>
|  3> %pal
|  4> nprocs 12
|  5> end
|  6>
|  7> %scf
|  8> MaxIter 1500
|  9> end
| 10>
| 11> %maxcore 5000
| 12>
| 13> !CPCM
| 14> %cpcm smd true
| 15> SMDsolvent "MeCN"
| 16> surfacetype gepol_ses
| 17> rsolv 2.19
| 18> end
| 19>
| 20> * xyz 1 2
| 21> C          -0.33666803182593      0.87387725927931      0.00224950043583
| 22> C          -1.60527267573123      0.30572515683772      0.00105884348909
| 23> C          -1.75984581826177     -1.11462509282437      0.00028869816155
| 24> C          -0.63781120335465     -1.92987020807192      0.00328888822389
| 25> C           0.62639976702454     -1.37107696388191      0.00533286087199
| 26> C           0.79278172637951      0.05900655011665      0.00335848385233
| 27> C           2.09127905212894      0.65930122282696      0.00287608449921
| 28> C           3.27431140228722     -0.01962698829955     -0.00195780741242
| 29> C           4.59636859538704      0.63427453281458     -0.00279342426495
| 30> H           5.16933812851862      0.30601966926642     -0.87836852191443
| 31> H           5.17394343950864      0.29732934603458      0.86641958518382
| 32> H           4.52750177901063      1.72115031269952      0.00261747050622
| 33> H           3.27624695599458     -1.10419916855458     -0.00634443234427
| 34> H           2.11916663667144      1.74423253091597      0.00477369293326
| 35> H           1.49309261877595     -2.01590161293601      0.00892814411229
| 36> H          -0.75777301235899     -3.00441873924256      0.00405307417330
| 37> H          -2.74733568834794     -1.55341725046853     -0.00362166180579
| 38> O          -2.64009780361867      1.14137702221222      0.00064499050515
| 39> C          -3.98728109533832      0.61271331821223     -0.00262503946123
| 40> H          -4.62910447971791      1.48831415583646      0.00024456666639
| 41> H          -4.15824125182703      0.01609663878409      0.89317810877055
| 42> H          -4.15590256787947      0.02366941076364     -0.90378951336332
| 43> H          -0.23793387342517      1.95138289767907      0.00142330818156
| 44> *
| 45>
| 46>                          ****END OF INPUT****

CARTESIAN COORDINATES (ANGSTROEM)
---------------------------------
  C     -0.336668    0.873877    0.002250
  C     -1.605273    0.305725    0.001059
  C     -1.759846   -1.114625    0.000289
  C     -0.637811   -1.929870    0.003289
  C      0.626400   -1.371077    0.005333
  C      0.792782    0.059007    0.003358
  C      2.091279    0.659301    0.002876
  C      3.274311   -0.019627   -0.001958
  C      4.596369    0.634275   -0.002793
  H      5.169338    0.306020   -0.878369
  H      5.173943    0.297329    0.866420
  H      4.527502    1.721150    0.002617
  H      3.276247   -1.104199   -0.006344
  H      2.119167    1.744233    0.004774
  H      1.493093   -2.015902    0.008928
  H     -0.757773   -3.004419    0.004053
  H     -2.747336   -1.553417   -0.003622
  O     -2.640098    1.141377    0.000645
  C     -3.987281    0.612713   -0.002625
  H     -4.629104    1.488314    0.000245
  H     -4.158241    0.016097    0.893178
  H     -4.155903    0.023669   -0.903790
  H     -0.237934    1.951383    0.001423

 Total Charge           Charge          ....    1
 Multiplicity           Mult            ....    2
 Number of Electrons    NEL             ....   79
 Basis Dimension        Dim             ....  782

ORBITAL ENERGIES
----------------
                 SPIN UP ORBITALS
  NO   OCC          E(Eh)            E(eV)
   0   1.0000     -19.128300      -520.5075
   1   1.0000     -10.222654      -278.1725
   2   1.0000     -10.175115      -276.8789
   3   1.0000     -10.173292      -276.8293
   4   1.0000     -10.170814      -276.7619
   5   1.0000     -10.168775      -276.7064
   6   1.0000     -10.168352      -276.6949
   7   1.0000     -10.153159      -276.2815
   8   1.0000     -10.148047      -276.1424
   9   1.0000     -10.140220      -275.9294
  10   1.0000     -10.120990      -275.4061
  11   1.0000      -1.085682       -29.5429
  12   1.0000      -0.880722       -23.9657
  13   1.0000      -0.821469       -22.3533
  14   1.0000      -0.775277       -21.0964
  15   1.0000      -0.767167       -20.8757
  16   1.0000      -0.708102       -19.2684
  17   1.0000      -0.692075       -18.8323
  18   1.0000      -0.622774       -16.9465
  19   1.0000      -0.615713       -16.7544
  20   1.0000      -0.562328       -15.3017
  21   1.0000      -0.538950       -14.6656
  22   1.0000      -0.504278       -13.7221
  23   1.0000      -0.495774       -13.4907
  24   1.0000      -0.476492       -12.9660
  25   1.0000      -0.476089       -12.9551
  26   1.0000      -0.446315       -12.1449
  27   1.0000      -0.431321       -11.7368
  28   1.0000      -0.418559       -11.3896
  29   1.0000      -0.409455       -11.1418
  30   1.0000      -0.403747       -10.9865
  31   1.0000      -0.397801       -10.8247
  32   1.0000      -0.384357       -10.4589
  33   1.0000      -0.369147       -10.0450
  34   1.0000      -0.357660        -9.7324
  35   1.0000      -0.356969        -9.7136
  36   1.0000      -0.337646        -9.1878
  37   1.0000      -0.320277        -8.7152
  38   1.0000      -0.256473        -6.9790
  39   1.0000      -0.252983        -6.8840
  40   0.0000      -0.095112        -2.5881
  41   0.0000      -0.049533        -1.3479
  42   0.0000      -0.006398        -0.1741
  43   0.0000       0.000687         0.0187
  44   0.0000       0.002010         0.0547

                 SPIN DOWN ORBITALS
  NO   OCC          E(Eh)            E(eV)
   0   1.0000     -19.125928      -520.4430
   1   1.0000     -10.222041      -278.1559
   2   1.0000     -10.174117      -276.8518
   3   1.0000     -10.173379      -276.8317
   4   1.0000     -10.165471      -276.6165
   5   1.0000     -10.164523      -276.5907
   6   1.0000     -10.163164      -276.5537
   7   1.0000     -10.152280      -276.2576
   8   1.0000     -10.150097      -276.1982
   9   1.0000     -10.140891      -275.9477
  10   1.0000     -10.121119      -275.4097
  11   1.0000      -1.081720       -29.4351
  12   1.0000      -0.874818       -23.8050
  13   1.0000      -0.814572       -22.1656
  14   1.0000      -0.773655       -21.0522
  15   1.0000      -0.759330       -20.6624
  16   1.0000      -0.702490       -19.1157
  17   1.0000      -0.689320       -18.7573
  18   1.0000      -0.620096       -16.8737
  19   1.0000      -0.611619       -16.6430
  20   1.0000      -0.559194       -15.2164
  21   1.0000      -0.536806       -14.6072
  22   1.0000      -0.502156       -13.6644
  23   1.0000      -0.493220       -13.4212
  24   1.0000      -0.473281       -12.8786
  25   1.0000      -0.469322       -12.7709
  26   1.0000      -0.445508       -12.1229
  27   1.0000      -0.430511       -11.7148
  28   1.0000      -0.409212       -11.1352
  29   1.0000      -0.408183       -11.1072
  30   1.0000      -0.395697       -10.7675
  31   1.0000      -0.393362       -10.7039
  32   1.0000      -0.383135       -10.4256
  33   1.0000      -0.367909       -10.0113
  34   1.0000      -0.356222        -9.6933
  35   1.0000      -0.344306        -9.3690
  36   1.0000      -0.335859        -9.1392
  37   1.0000      -0.304929        -8.2975
  38   1.0000      -0.245401        -6.6777
  39   0.0000      -0.198917        -5.4128
  40   0.0000      -0.071947        -1.9578
  41   0.0000      -0.039834        -1.0840
  42   0.0000      -0.005703        -0.1552
  43   0.0000       0.002532         0.0689

MULLIKEN ATOMIC CHARGES AND SPIN POPULATIONS
--------------------------------------------
   0 C :   -0.478742   -0.074417
   1 C :    0.711669    0.054584
   2 C :    0.035600    0.352182
   3 C :   -0.681292   -0.167987
   4 C :   -0.311060    0.372107
   5 C :    1.263664    0.068858
   6 C :    0.029193    0.072791
   7 C :   -0.419445    0.251439
   8 C :   -0.271161   -0.039546
   9 H :    0.150305    0.019070
  10 H :    0.151127    0.018974
  11 H :    0.133334   -0.003069
  12 H :    0.085860   -0.008609
  13 H :    0.024249   -0.000290
  14 H :    0.274850    0.010525
  15 H :    0.489373   -0.008297
  16 H :    0.163856    0.002920
  17 O :   -0.636315    0.076611
  18 C :   -0.218474   -0.001490
  19 H :    0.032977    0.000735
  20 H :    0.215526    0.000566
  21 H :    0.213041    0.000649
  22 H :    0.041863    0.001692
Sum of atomic charges         :    1.0000000

LOEWDIN ATOMIC CHARGES AND SPIN POPULATIONS
-------------------------------------------
   0 C :    0.255496   -0.002563
   1 C :   -0.342884    0.075266
   2 C :    0.292013    0.170915
   3 C :    0.273924    0.044484
   4 C :    0.293037    0.176346
   5 C :   -0.091070    0.084426
   6 C :    0.281608    0.081968
   7 C :    0.292282    0.135799
   8 C :    0.615340    0.043319
   9 H :   -0.149132    0.010118
  10 H :   -0.149251    0.010098
  11 H :   -0.164019    0.000999
  12 H :   -0.168170    0.021687
  13 H :   -0.160494    0.008395
  14 H :   -0.170738    0.035947
  15 H :   -0.154361   -0.009639
  16 H :   -0.169140    0.036794
  17 O :    0.640138    0.068611
  18 C :    0.422552    0.007374
  19 H :   -0.168545   -0.000302
  20 H :   -0.160998    0.001958
  21 H :   -0.160792    0.001955
  22 H :   -0.156798   -0.003957

  Mayer bond orders larger than 0.100000
B(  0-C ,  1-C ) :   0.7009 B(  0-C ,  4-C ) :  -0.1143 B(  0-C ,  5-C ) :   0.4827
B(  0-C ,  6-C ) :  -0.3651 B(  0-C ,  7-C ) :   0.1317 B(  0-C , 17-O ) :   0.4556
B(  0-C , 22-H ) :   1.0901 B(  1-C ,  2-C ) :   1.0736 B(  1-C ,  4-C ) :  -0.1525
B(  1-C , 18-C ) :   0.1759 B(  2-C ,  3-C ) :   1.2601 B(  2-C ,  4-C ) :   0.1012
B(  2-C ,  5-C ) :  -0.1227 B(  2-C , 16-H ) :   0.9642 B(  2-C , 17-O ) :  -0.2231
B(  2-C , 18-C ) :  -0.1325 B(  3-C ,  4-C ) :   1.3567 B(  3-C ,  5-C ) :  -0.1630
B(  3-C , 15-H ) :   0.3843 B(  4-C ,  5-C ) :   0.7344 B(  4-C ,  7-C ) :   0.1039
B(  4-C , 14-H ) :   0.7900 B(  4-C , 15-H ) :   0.1194 B(  5-C ,  6-C ) :   0.3152
B(  5-C ,  7-C ) :  -0.1839 B(  5-C , 12-H ) :  -0.1679 B(  5-C , 17-O ) :   0.1758
B(  6-C ,  7-C ) :   0.9548 B(  6-C , 12-H ) :   0.1787 B(  6-C , 13-H ) :   1.1147
B(  7-C ,  8-C ) :   1.1282 B(  7-C , 11-H ) :   0.1242 B(  7-C , 12-H ) :   1.2007
B(  7-C , 14-H ) :  -0.1040 B(  8-C ,  9-H ) :   0.9227 B(  8-C , 10-H ) :   0.9224
B(  8-C , 11-H ) :   0.9323 B( 17-O , 18-C ) :   0.9050 B( 18-C , 19-H ) :   1.0666
B( 18-C , 20-H ) :   0.9251 B( 18-C , 21-H ) :   0.9268

Dispersion correction           -0.026711428
FINAL SINGLE POINT ENERGY      -463.520375026386

DIPOLE MOMENT
-------------

Method             : SCF
Type of density    : Electron Density
Multiplicity       :   2
Irrep              :   0
Energy             :  -463.4936635981200084 Eh
Relativity type    :
Basis              : AO
                                X                 Y                 Z
Electronic contribution:     -4.438910684      -0.623351477       0.015896816
Nuclear contribution   :      4.753836208      -0.305061243      -0.019929203
                        -----------------------------------------
Total Dipole Moment    :      0.314925524      -0.928412720      -0.004032387
                        -----------------------------------------
Magnitude (a.u.)       :      0.980379786
Magnitude (Debye)      :      2.491927379

VIBRATIONAL FREQUENCIES
-----------------------

Scaling factor for frequencies =  1.000000000  (already applied!)

     0:       0.00 cm**-1
     1:       0.00 cm**-1
     2:       0.00 cm**-1
     3:       0.00 cm**-1
     4:       0.00 cm**-1
     5:       0.00 cm**-1
     6:      19.20 cm**-1
     7:      83.65 cm**-1
     8:     108.03 cm**-1
     9:     123.39 cm**-1
    10:     153.89 cm**-1
    11:     166.43 cm**-1
    12:     210.49 cm**-1
    13:     242.29 cm**-1
    14:     259.05 cm**-1
    15:     329.15 cm**-1
    16:     353.83 cm**-1
    17:     402.22 cm**-1
    18:     424.74 cm**-1
    19:     543.77 cm**-1
    20:     585.18 cm**-1
    21:     601.07 cm**-1
    22:     612.27 cm**-1
    23:     749.66 cm**-1
    24:     780.52 cm**-1
    25:     815.07 cm**-1
    26:     876.23 cm**-1
    27:     884.35 cm**-1
    28:     903.02 cm**-1
    29:     941.60 cm**-1
    30:     961.11 cm**-1
    31:     986.11 cm**-1
    32:     992.51 cm**-1
    33:    1017.80 cm**-1
    34:    1033.70 cm**-1
    35:    1123.78 cm**-1
    36:    1137.88 cm**-1
    37:    1147.54 cm**-1
    38:    1166.96 cm**-1
    39:    1189.42 cm**-1
    40:    1222.18 cm**-1
    41:    1283.45 cm**-1
    42:    1315.63 cm**-1
    43:    1328.79 cm**-1
    44:    1341.46 cm**-1
    45:    1370.48 cm**-1
    46:    1395.49 cm**-1
    47:    1439.87 cm**-1
    48:    1441.57 cm**-1
    49:    1462.93 cm**-1
    50:    1471.58 cm**-1
    51:    1485.41 cm**-1
    52:    1487.97 cm**-1
    53:    1494.10 cm**-1
    54:    1521.14 cm**-1
    55:    1569.37 cm**-1
    56:    1611.31 cm**-1
    57:    3003.15 cm**-1
    58:    3042.08 cm**-1
    59:    3047.56 cm**-1
    60:    3120.43 cm**-1
    61:    3130.97 cm**-1
    62:    3155.07 cm**-1
    63:    3168.90 cm**-1
    64:    3169.67 cm**-1
    65:    3196.36 cm**-1
    66:    3201.69 cm**-1
    67:    3215.77 cm**-1
    68:    3220.97 cm**-1

IR SPECTRUM
-----------

 Mode   freq       eps      Int      T**2         TX        TY        TZ
       cm**-1   L/(mol*cm) km/mol    a.u.
----------------------------------------------------------------------------
  6:     19.20   0.000841    4.25  0.013665  (-0.001609 -0.000836 -0.116882)
  7:     83.65   0.000503    2.54  0.001878  ( 0.002801  0.000746  0.043242)
  8:    108.03   0.000047    0.24  0.000135  ( 0.004251  0.000449 -0.010803)
  9:    123.39   0.000147    0.74  0.000372  (-0.010086  0.016445 -0.000447)
 10:    153.89   0.000065    0.33  0.000132  (-0.002262 -0.000050 -0.011250)
 11:    166.43   0.000677    3.42  0.001269  ( 0.001167 -0.000300  0.035609)
 12:    210.49   0.000304    1.54  0.000451  (-0.001019  0.000709  0.021191)
 13:    242.29   0.005470   27.64  0.007045  (-0.082171  0.017118 -0.000155)
 14:    259.05   0.000001    0.01  0.000001  ( 0.001109 -0.000334 -0.000174)
 15:    329.15   0.009858   49.82  0.009346  ( 0.096341  0.008039  0.000058)
 16:    353.83   0.001149    5.81  0.001013  (-0.029682 -0.011510  0.000010)
 17:    402.22   0.000028    0.14  0.000021  (-0.000959 -0.000056 -0.004536)
 18:    424.74   0.090337  456.53  0.066373  ( 0.257173  0.015318 -0.000045)
 19:    543.77   0.058740  296.85  0.033710  (-0.183323  0.010118  0.000375)
 20:    585.18   0.000184    0.93  0.000098  (-0.002471 -0.000333 -0.009573)
 21:    601.07   0.010494   53.03  0.005448  ( 0.000976 -0.000182  0.073807)
 22:    612.27   0.004291   21.69  0.002187  (-0.046755 -0.000214 -0.001049)
 23:    749.66   0.024733  124.99  0.010296  ( 0.096930  0.030002 -0.000222)
 24:    780.52   0.008011   40.48  0.003203  ( 0.001681  0.000457  0.056566)
 25:    815.07   0.001307    6.61  0.000501  (-0.001588 -0.000246  0.022315)
 26:    876.23   0.007780   39.32  0.002771  ( 0.043924  0.028999  0.000650)
 27:    884.35   0.004784   24.18  0.001688  (-0.001649  0.000318 -0.041053)
 28:    903.02   0.000115    0.58  0.000040  ( 0.002517  0.000495  0.005772)
 29:    941.60   0.124501  629.18  0.041262  (-0.203101 -0.003406  0.000703)
 30:    961.11   0.012817   64.77  0.004162  (-0.000656 -0.000572  0.064505)
 31:    986.11   0.026777  135.32  0.008474  (-0.091965 -0.004025  0.000166)
 32:    992.51   0.000638    3.22  0.000201  (-0.002951 -0.000226  0.013851)
 33:   1017.80   0.038090  192.49  0.011679  (-0.106642 -0.017497 -0.000330)
 34:   1033.70   0.000179    0.91  0.000054  (-0.002388  0.000054 -0.006955)
 35:   1123.78   0.007800   39.42  0.002166  ( 0.034969  0.030711  0.000169)
 36:   1137.88   0.310304  1568.15  0.085101  ( 0.291506  0.011201 -0.000060)
 37:   1147.54   0.023518  118.85  0.006396  ( 0.079821 -0.004916  0.000176)
 38:   1166.96   0.000227    1.15  0.000061  ( 0.002650  0.000222 -0.007321)
 39:   1189.42   0.021466  108.48  0.005632  (-0.074946  0.003855  0.000225)
 40:   1222.18   0.085850  433.85  0.021920  (-0.146559  0.020997 -0.000107)
 41:   1283.45   0.509098  2572.77  0.123784  ( 0.351829  0.000512 -0.000134)
 42:   1315.63   0.018284   92.40  0.004337  ( 0.058129 -0.030952  0.000143)
 43:   1328.79   0.016404   82.90  0.003852  ( 0.061023  0.011339  0.000009)
 44:   1341.46   0.065837  332.72  0.015316  (-0.123723  0.002911 -0.000045)
 45:   1370.48   0.000017    0.08  0.000004  ( 0.001162  0.001506 -0.000391)
 46:   1395.49   0.020449  103.34  0.004573  (-0.064407 -0.020609  0.000172)
 47:   1439.87   0.015874   80.22  0.003440  ( 0.051758 -0.005909  0.026954)
 48:   1441.57   0.147095  743.36  0.031842  (-0.177289  0.018373  0.008569)
 49:   1462.93   0.017827   90.09  0.003803  (-0.056516  0.024669  0.000364)
 50:   1471.58   0.001040    5.26  0.000221  (-0.009745 -0.011186  0.000672)
 51:   1485.41   0.003990   20.16  0.000838  (-0.010773  0.002859 -0.026721)
 52:   1487.97   0.019449   98.29  0.004079  ( 0.061334 -0.017718 -0.001760)
 53:   1494.10   0.018175   91.85  0.003796  (-0.059576 -0.015602 -0.001848)
 54:   1521.14   0.511203  2583.41  0.104874  (-0.323187 -0.020577  0.000529)
 55:   1569.37   0.026119  131.99  0.005194  ( 0.071344  0.010184 -0.000058)
 56:   1611.31   0.077086  389.56  0.014929  ( 0.109665  0.053880  0.000088)
 57:   3003.15   0.004103   20.73  0.000426  (-0.020160 -0.004459  0.000090)
 58:   3042.08   0.000671    3.39  0.000069  ( 0.000563  0.000051  0.008277)
 59:   3047.56   0.024521  123.92  0.002511  (-0.049158 -0.009717  0.000014)
 60:   3120.43   0.013733   69.40  0.001373  ( 0.029501  0.022428  0.000056)
 61:   3130.97   0.003797   19.19  0.000378  ( 0.000090  0.000126  0.019452)
 62:   3155.07   0.006698   33.85  0.000662  ( 0.024344  0.008357  0.000104)
 63:   3168.90   0.002046   10.34  0.000201  (-0.005232  0.013196 -0.000040)
 64:   3169.67   0.003456   17.47  0.000340  ( 0.012321 -0.013728 -0.000056)
 65:   3196.36   0.000343    1.73  0.000033  ( 0.005727 -0.000830 -0.000079)
 66:   3201.69   0.000778    3.93  0.000076  (-0.006927 -0.005281 -0.000008)
 67:   3215.77   0.001404    7.10  0.000136  (-0.010704  0.004657  0.000106)
 68:   3220.97   0.000207    1.04  0.000020  ( 0.003381  0.002931 -0.000032)

--------------------------
THERMOCHEMISTRY AT 298.15K
--------------------------

Temperature         ...   298.15 K
Pressure            ...     1.00 atm
Total Mass          ...   148.21 AMU
Quasi RRHO          ...     True
Cut-Off Frequency   ...     1.00 cm^-1

Throughout the following assumptions are being made:
  (1) The electronic state is orbitally nondegenerate
      but the spin degeneracy is treated
  (2) There are no thermally accessible electronically excited states
  (3) Hindered rotations indicated by low frequency modes are not
      treated as such but are treated as vibrations and this may
      cause some error
  (4) All equations used are the standard statistical mechanics
      equations for an ideal gas
  (5) All vibrations are strictly harmonic

freq.      19.20  E(vib)   ...       0.57
freq.      83.65  E(vib)   ...       0.48
freq.     108.03  E(vib)   ...       0.45
freq.     123.39  E(vib)   ...       0.43
freq.     153.89  E(vib)   ...       0.40
freq.     166.43  E(vib)   ...       0.39
freq.     210.49  E(vib)   ...       0.34
freq.     242.29  E(vib)   ...       0.31
freq.     259.05  E(vib)   ...       0.30
freq.     329.15  E(vib)   ...       0.24
freq.     353.83  E(vib)   ...       0.22
freq.     402.22  E(vib)   ...       0.19
freq.     424.74  E(vib)   ...       0.18
freq.     543.77  E(vib)   ...       0.12
freq.     585.18  E(vib)   ...       0.11
freq.     601.07  E(vib)   ...       0.10
freq.     612.27  E(vib)   ...       0.10
freq.     749.66  E(vib)   ...       0.06
freq.     780.52  E(vib)   ...       0.05
freq.     815.07  E(vib)   ...       0.05
freq.     876.23  E(vib)   ...       0.04
freq.     884.35  E(vib)   ...       0.04
freq.     903.02  E(vib)   ...       0.03
freq.     941.60  E(vib)   ...       0.03
freq.     961.11  E(vib)   ...       0.03
freq.     986.11  E(vib)   ...       0.02
freq.     992.51  E(vib)   ...       0.02
freq.    1017.80  E(vib)   ...       0.02
freq.    1033.70  E(vib)   ...       0.02
freq.    1123.78  E(vib)   ...       0.01
freq.    1137.88  E(vib)   ...       0.01
freq.    1147.54  E(vib)   ...       0.01
freq.    1166.96  E(vib)   ...       0.01
freq.    1189.42  E(vib)   ...       0.01
freq.    1222.18  E(vib)   ...       0.01
freq.    1283.45  E(vib)   ...       0.01
freq.    1315.63  E(vib)   ...       0.01
freq.    1328.79  E(vib)   ...       0.01
freq.    1341.46  E(vib)   ...       0.01
freq.    1370.48  E(vib)   ...       0.01
freq.    1395.49  E(vib)   ...       0.00
freq.    1439.87  E(vib)   ...       0.00
freq.    1441.57  E(vib)   ...       0.00
freq.    1462.93  E(vib)   ...       0.00
freq.    1471.58  E(vib)   ...       0.00
freq.    1485.41  E(vib)   ...       0.00
freq.    1487.97  E(vib)   ...       0.00
freq.    1494.10  E(vib)   ...       0.00
freq.    1521.14  E(vib)   ...       0.00
freq.    1569.37  E(vib)   ...       0.00
freq.    1611.31  E(vib)   ...       0.00
freq.    3003.15  E(vib)   ...       0.00
freq.    3042.08  E(vib)   ...       0.00
freq.    3047.56  E(vib)   ...       0.00
freq.    3120.43  E(vib)   ...       0.00
freq.    3130.97  E(vib)   ...       0.00
freq.    3155.07  E(vib)   ...       0.00
freq.    3168.90  E(vib)   ...       0.00
freq.    3169.67  E(vib)   ...       0.00
freq.    3196.36  E(vib)   ...       0.00
freq.    3201.69  E(vib)   ...       0.00
freq.    3215.77  E(vib)   ...       0.00
freq.    3220.97  E(vib)   ...       0.00

------------
INNER ENERGY
------------

The inner energy is: U= E(el) + E(ZPE) + E(vib) + E(rot) + E(trans)
    E(el)   - is the total energy from the electronic structure calculation
              = E(kin-el) + E(nuc-el) + E(el-el) + E(nuc-nuc)
    E(ZPE)  - the the zero temperature vibrational energy from the frequency calculation
    E(vib)  - the the finite temperature correction to E(ZPE) due to population
              of excited vibrational states
    E(rot)  - is the rotational thermal energy
    E(trans)- is the translational thermal energy

Summary of contributions to the inner energy U:
Electronic energy                ...   -463.52037503 Eh
Zero point energy                ...      0.19100438 Eh     119.86 kcal/mol
Thermal vibrational correction   ...      0.00873562 Eh       5.48 kcal/mol
Thermal rotational correction    ...      0.00141627 Eh       0.89 kcal/mol
Thermal translational correction ...      0.00141627 Eh       0.89 kcal/mol
-----------------------------------------------------------------------
Total thermal energy                   -463.31780249 Eh

Summary of corrections to the electronic energy:
(perhaps to be used in another calculation)
Total thermal correction                  0.01156816 Eh       7.26 kcal/mol
Non-thermal (ZPE) correction              0.19100438 Eh     119.86 kcal/mol
-----------------------------------------------------------------------
Total correction                          0.20257254 Eh     127.12 kcal/mol

--------
ENTHALPY
--------

The enthalpy is H = U + kB*T
                kB is Boltzmann's constant
Total thermal energy              ...   -463.31780249 Eh
Thermal Enthalpy correction       ...      0.00094421 Eh       0.59 kcal/mol
-----------------------------------------------------------------------
Total Enthalpy                    ...   -463.31685828 Eh

Note: Only C1 symmetry has been detected, increase convergence thresholds
      if your molecule has a higher symmetry. Symmetry factor of 1.0 is
      used for the rotational entropy correction.

Note: Rotational entropy computed according to Herzberg
Infrared and Raman Spectra, Chapter V,1, Van Nostrand Reinhold, 1945
Point Group:  C1, Symmetry Number:   1
Rotational constants in cm-1:     0.105188     0.017128     0.014812

Vibrational entropy computed according to the QRRHO of S. Grimme
Chem.Eur.J. 2012 18 9955 using a reference frequency of 100.0 cm-1

-------
ENTROPY
-------

The entropy contributions are T*S = T*(S(el)+S(vib)+S(rot)+S(trans))
     S(el)   - electronic entropy
     S(vib)  - vibrational entropy
     S(rot)  - rotational entropy
     S(trans)- translational entropy
The entropies will be listed as multiplied by the temperature to get
units of energy

Electronic entropy                ...      0.00065446 Eh      0.41 kcal/mol
Vibrational entropy               ...      0.01557239 Eh      9.77 kcal/mol
Rotational entropy                ...      0.01448257 Eh      9.09 kcal/mol
Translational entropy             ...      0.01942844 Eh     12.19 kcal/mol
-----------------------------------------------------------------------
Final entropy term                ...      0.05013786 Eh     31.46 kcal/mol

In case the symmetry of your molecule has not been determined correctly

                             ****ORCA TERMINATED NORMALLY****
TOTAL RUN TIME: 0 days 2 hours 23 minutes 13 seconds 189 msec
