                         Program Version 6.0.0  -   RELEASE  -
|  1> !TPSSh opt aug-cc-pVTZ d3 TightSCF SlowConv RIJCOSX defgrid2
|  2>
|  3> %pal
|  4> nprocs 8
|  5> end
|  6>
|  7> %scf
|  8> MaxIter 1500
|  9> end
| 10>
| 11> %maxcore 3500
| 12>
| 13> !CPCM
| 14> %cpcm smd true
| 15> SMDsolvent "MeCN"
| 16> surfacetype gepol_ses
| 17> rsolv 2.19
| 18> end
| 19>
| 20> * xyz 1 2
| 21> C           0.87744843065952     -1.21883020305656     -0.00000377931808
| 22> C           1.23614385256415      0.16954678831828     -0.00005753568123
| 23> C           0.19424149048169      1.13860709962105     -0.00010423188513
| 24> C          -1.13871229830849      0.78765011017298     -0.00010761886515
| 25> C          -1.47639805753200     -0.61212175919558     -0.00004559988331
| 26> C          -0.44313247207265     -1.58385318757954     -0.00000224391858
| 27> H          -0.71685810144297     -2.64212602539406      0.00003056402544
| 28> C          -2.89571606376255     -1.03893857261662      0.00008867922043
| 29> H          -3.00213765434000     -2.13324643661373     -0.00058232712929
| 30> H          -3.42610981706820     -0.62983884560970     -0.88112182092760
| 31> H          -3.42539618531857     -0.63109402296886      0.88234176195400
| 32> C          -2.21290888782919      1.82515453001126     -0.00014347524999
| 33> H          -2.86411247883622      1.72648441322314      0.88680265880356
| 34> H          -2.86402349010390      1.72654581117049     -0.88716064088710
| 35> H          -1.78890328618740      2.84026297434392     -0.00008728403417
| 36> H           0.46977060139751      2.19725330423840     -0.00014030748002
| 37> C           2.58814654556121      0.62001515372005     -0.00006319236512
| 38> C           3.70337676945614     -0.17841322402212     -0.00002927580579
| 39> H           3.65253331490638     -1.27227115038024      0.00001025225905
| 40> H           4.70281234102144      0.26973736826902     -0.00003315173613
| 41> H           2.73668489690756      1.70605493317894     -0.00009332036310
| 42> H           1.65048734984656     -1.99000785883051      0.00003538926729
| 43> *
| 44>
| 45>                          ****END OF INPUT****
 Total Charge           Charge          ....    1
 Multiplicity           Mult            ....    2
 Number of Electrons    NEL             ....   71
Dispersion correction           -0.026977593
FINAL SINGLE POINT ENERGY      -388.274234602449
Dispersion correction             ... done (  0.0 sec)
Dispersion correction           -0.027090859
FINAL SINGLE POINT ENERGY      -388.275364884803
Dispersion correction             ... done (  0.1 sec)
Dispersion correction           -0.027111509
FINAL SINGLE POINT ENERGY      -388.275386609565
Dispersion correction             ... done (  0.0 sec)
Dispersion correction           -0.027120357
FINAL SINGLE POINT ENERGY      -388.275391578994
Dispersion correction             ... done (  0.1 sec)
                    ***********************HURRAY********************

CARTESIAN COORDINATES (ANGSTROEM)
---------------------------------
  C      0.879342   -1.210675   -0.001279
  C      1.229668    0.175890   -0.001250
  C      0.193527    1.143947   -0.001491
  C     -1.132315    0.786693   -0.000803
  C     -1.465105   -0.608624   -0.000455
  C     -0.436656   -1.577590   -0.000993
  H     -0.709174   -2.624895   -0.000738
  C     -2.884798   -1.035571    0.000809
  H     -2.979800   -2.119160   -0.001820
  H     -3.406735   -0.626495   -0.871159
  H     -3.402961   -0.631624    0.877522
  C     -2.212471    1.819560   -0.000294
  H     -2.853242    1.713495    0.879508
  H     -2.855407    1.711805   -0.878288
  H     -1.788220    2.822349   -0.001849
  H      0.470217    2.191187   -0.002067
  C      2.578178    0.625286    0.000087
  C      3.676410   -0.187204    0.001583
  H      3.606378   -1.267152    0.000943
  H      4.669088    0.243800    0.003439
  H      2.730360    1.698845   -0.000061
  H      1.650955   -1.967295   -0.001807

 Multiplicity           Mult            ....    2
 Number of Electrons    NEL             ....   71
 Basis Dimension        Dim             ....  736

ORBITAL ENERGIES
----------------
                 SPIN UP ORBITALS
  NO   OCC          E(Eh)            E(eV)
   0   1.0000     -10.183672      -277.1118
   1   1.0000     -10.180004      -277.0120
   2   1.0000     -10.169178      -276.7174
   3   1.0000     -10.164202      -276.5820
   4   1.0000     -10.161505      -276.5086
   5   1.0000     -10.160024      -276.4683
   6   1.0000     -10.148804      -276.1630
   7   1.0000     -10.145627      -276.0765
   8   1.0000     -10.123828      -275.4834
   9   1.0000     -10.118656      -275.3426
  10   1.0000      -0.887467       -24.1492
  11   1.0000      -0.828327       -22.5399
  12   1.0000      -0.782465       -21.2920
  13   1.0000      -0.767895       -20.8955
  14   1.0000      -0.710520       -19.3342
  15   1.0000      -0.681139       -18.5347
  16   1.0000      -0.624847       -17.0030
  17   1.0000      -0.612478       -16.6664
  18   1.0000      -0.558601       -15.2003
  19   1.0000      -0.516521       -14.0552
  20   1.0000      -0.497672       -13.5424
  21   1.0000      -0.466134       -12.6842
  22   1.0000      -0.444296       -12.0899
  23   1.0000      -0.443236       -12.0611
  24   1.0000      -0.430099       -11.7036
  25   1.0000      -0.423650       -11.5281
  26   1.0000      -0.398547       -10.8450
  27   1.0000      -0.391202       -10.6451
  28   1.0000      -0.390320       -10.6211
  29   1.0000      -0.386583       -10.5194
  30   1.0000      -0.377328       -10.2676
  31   1.0000      -0.352884        -9.6025
  32   1.0000      -0.344167        -9.3653
  33   1.0000      -0.325805        -8.8656
  34   1.0000      -0.276423        -7.5218
  35   1.0000      -0.258433        -7.0323
  36   0.0000      -0.106329        -2.8934
  37   0.0000      -0.049685        -1.3520
  38   0.0000      -0.010053        -0.2735
  39   0.0000      -0.006827        -0.1858
  40   0.0000       0.002733         0.0744

                 SPIN DOWN ORBITALS
  NO   OCC          E(Eh)            E(eV)
   0   1.0000     -10.178911      -276.9823
   1   1.0000     -10.176735      -276.9230
   2   1.0000     -10.165037      -276.6047
   3   1.0000     -10.162381      -276.5324
   4   1.0000     -10.161046      -276.4961
   5   1.0000     -10.158029      -276.4140
   6   1.0000     -10.148788      -276.1626
   7   1.0000     -10.146362      -276.0965
   8   1.0000     -10.123991      -275.4878
   9   1.0000     -10.118678      -275.3432
  10   1.0000      -0.881439       -23.9852
  11   1.0000      -0.820904       -22.3379
  12   1.0000      -0.781138       -21.2559
  13   1.0000      -0.758808       -20.6482
  14   1.0000      -0.706836       -19.2340
  15   1.0000      -0.676165       -18.3994
  16   1.0000      -0.620546       -16.8859
  17   1.0000      -0.608923       -16.5696
  18   1.0000      -0.554574       -15.0907
  19   1.0000      -0.514616       -14.0034
  20   1.0000      -0.495352       -13.4792
  21   1.0000      -0.463380       -12.6092
  22   1.0000      -0.440872       -11.9967
  23   1.0000      -0.434773       -11.8308
  24   1.0000      -0.427861       -11.6427
  25   1.0000      -0.422777       -11.5043
  26   1.0000      -0.394609       -10.7379
  27   1.0000      -0.388365       -10.5679
  28   1.0000      -0.386238       -10.5101
  29   1.0000      -0.376474       -10.2444
  30   1.0000      -0.375933       -10.2296
  31   1.0000      -0.352053        -9.5798
  32   1.0000      -0.342422        -9.3178
  33   1.0000      -0.303776        -8.2662
  34   1.0000      -0.271330        -7.3833
  35   0.0000      -0.202233        -5.5030
  36   0.0000      -0.078404        -2.1335
  37   0.0000      -0.040887        -1.1126
  38   0.0000      -0.006108        -0.1662
  39   0.0000       0.004050         0.1102

MULLIKEN ATOMIC CHARGES AND SPIN POPULATIONS
--------------------------------------------
   0 C :   -0.110863    0.101912
   1 C :    1.514509    0.222798
   2 C :   -0.588378    0.002877
   3 C :    0.165556    0.013805
   4 C :    0.434447    0.363306
   5 C :   -0.823920   -0.086436
   6 H :    0.099492    0.001010
   7 C :   -0.164293   -0.042134
   8 H :   -0.095285   -0.006727
   9 H :    0.169962    0.025346
  10 H :    0.169604    0.025570
  11 C :   -0.169321   -0.008111
  12 H :    0.163254    0.004016
  13 H :    0.163106    0.004015
  14 H :   -0.092927   -0.000565
  15 H :   -0.256677    0.008710
  16 C :    0.204336   -0.001875
  17 C :   -0.572517    0.384885
  18 H :    0.304421    0.007388
  19 H :    0.040383   -0.020162
  20 H :    0.175626    0.006270
  21 H :    0.269485   -0.005898
Sum of atomic charges         :    1.0000000

LOEWDIN ATOMIC CHARGES AND SPIN POPULATIONS
-------------------------------------------
   0 C :    0.285732    0.085289
   1 C :   -0.074799    0.122290
   2 C :    0.286199    0.036156
   3 C :   -0.042814    0.057290
   4 C :   -0.026709    0.156394
   5 C :    0.292281    0.041725
   6 H :   -0.153505   -0.002848
   7 C :    0.631175    0.049772
   8 H :   -0.155569    0.001301
   9 H :   -0.140721    0.012105
  10 H :   -0.140285    0.012196
  11 C :    0.616503    0.006273
  12 H :   -0.149160    0.001999
  13 H :   -0.149394    0.001997
  14 H :   -0.159544    0.000003
  15 H :   -0.150976    0.001227
  16 C :    0.265271    0.084373
  17 C :    0.655246    0.225313
  18 H :   -0.189814    0.044930
  19 H :   -0.169668    0.050074
  20 H :   -0.161563    0.000135
  21 H :   -0.167885    0.012007

  Mayer bond orders larger than 0.100000
B(  0-C ,  1-C ) :   0.5836 B(  0-C ,  2-C ) :  -0.5940 B(  0-C ,  3-C ) :  -0.1653
B(  0-C ,  5-C ) :   1.2541 B(  0-C , 16-C ) :   0.1607 B(  0-C , 21-H ) :   1.0574
B(  1-C ,  3-C ) :   0.1971 B(  1-C ,  4-C ) :  -0.4293 B(  1-C ,  7-C ) :   0.1119
B(  1-C , 15-H ) :  -0.2260 B(  1-C , 16-C ) :   0.4493 B(  1-C , 17-C ) :  -0.2288
B(  1-C , 20-H ) :   0.1536 B(  1-C , 21-H ) :   0.1913 B(  2-C ,  3-C ) :   0.9842
B(  2-C ,  4-C ) :  -0.1229 B(  2-C ,  5-C ) :   0.1555 B(  2-C , 11-C ) :  -0.2779
B(  2-C , 15-H ) :   1.8339 B(  2-C , 20-H ) :  -0.1660 B(  3-C ,  4-C ) :   1.3702
B(  3-C ,  5-C ) :   0.2035 B(  3-C ,  7-C ) :   0.1584 B(  3-C , 11-C ) :   0.4812
B(  3-C , 16-C ) :   0.1174 B(  3-C , 20-H ) :   0.1558 B(  3-C , 21-H ) :  -0.1227
B(  4-C ,  5-C ) :   0.8172 B(  4-C ,  6-H ) :   0.2240 B(  4-C ,  7-C ) :   0.6891
B(  4-C , 11-C ) :   0.3781 B(  4-C , 16-C ) :   0.1639 B(  5-C ,  6-H ) :   0.9445
B(  5-C ,  7-C ) :  -0.1880 B(  5-C , 21-H ) :  -0.1744 B(  7-C ,  8-H ) :   1.0381
B(  7-C ,  9-H ) :   0.9578 B(  7-C , 10-H ) :   0.9583 B( 11-C , 12-H ) :   0.9735
B( 11-C , 13-H ) :   0.9732 B( 11-C , 14-H ) :   1.0142 B( 15-H , 16-C ) :  -0.1314
B( 16-C , 17-C ) :   1.0590 B( 16-C , 20-H ) :   0.8692 B( 17-C , 18-H ) :   0.9490
B( 17-C , 19-H ) :   1.0877 B( 17-C , 20-H ) :  -0.1898

Dispersion correction           -0.027118964
FINAL SINGLE POINT ENERGY      -388.275393020439

DIPOLE MOMENT
-------------

Method             : SCF
Type of density    : Electron Density
Multiplicity       :   2
Irrep              :   0
Energy             :  -388.2482740561962942 Eh
Relativity type    :
Basis              : AO
                                X                 Y                 Z
Electronic contribution:      5.477716156      -1.206349056      -0.005970395
Nuclear contribution   :     -4.585138069       1.045655431       0.007266743
                        -----------------------------------------
Total Dipole Moment    :      0.892578087      -0.160693625       0.001296347
                        -----------------------------------------
Magnitude (a.u.)       :      0.906928753
Magnitude (Debye)      :      2.305229691

Rotational constants in cm-1:             0.095874             0.029395             0.022685
Rotational constants in MHz :          2874.226598           881.244038           680.079368

                             ****ORCA TERMINATED NORMALLY****
TOTAL RUN TIME: 0 days 0 hours 37 minutes 55 seconds 445 msec
