                         Program Version 6.0.0  -   RELEASE  -
|  1> !TPSSh aug-cc-pVTZ d3 TightSCF SlowConv RIJCOSX defgrid2
|  2>
|  3> %pal
|  4> nprocs 4
|  5> end
|  6>
|  7> %scf
|  8> MaxIter 1500
|  9> end
| 10>
| 11> %maxcore 3000
| 12>
| 13> !CPCM
| 14> %cpcm smd true
| 15> SMDsolvent "MeCN"
| 16> surfacetype gepol_ses
| 17> rsolv 2.19
| 18> end
| 19>
| 20> * xyz 1 2
| 21> C           0.76309641907195     -1.16293983433003      0.23718381873604
| 22> C          -0.76304171601446     -1.16296952747842     -0.23724555362178
| 23> H          -1.27590174641137     -2.02340834769785      0.21800270990120
| 24> H          -0.77362876837767     -1.19896716686552     -1.34057732579590
| 25> O          -1.30210126379069     -0.00003866110666      0.26158364977248
| 26> C          -0.76310446688411      1.16294442598402     -0.23720418219692
| 27> C           0.76303513090937      1.16298601934474      0.23722214632434
| 28> H           1.27589626879449      2.02341629109980     -0.21804063751063
| 29> H           0.77362940968102      1.19899371952034      1.34055360051981
| 30> O           1.30210147370824      0.00004813344550     -0.26159746316919
| 31> H          -1.27602354622748      2.02334978586835      0.21803685187514
| 32> H          -0.77366667806753      1.19894468683083     -1.34053597047731
| 33> H           1.27601869897724     -2.02334025573413     -0.21806265273971
| 34> H           0.77366218463101     -1.19894196888098      1.34051380838241
| 35> *
| 36>
| 37>                          ****END OF INPUT****

CARTESIAN COORDINATES (ANGSTROEM)
---------------------------------
  C      0.763096   -1.162940    0.237184
  C     -0.763042   -1.162970   -0.237246
  H     -1.275902   -2.023408    0.218003
  H     -0.773629   -1.198967   -1.340577
  O     -1.302101   -0.000039    0.261584
  C     -0.763104    1.162944   -0.237204
  C      0.763035    1.162986    0.237222
  H      1.275896    2.023416   -0.218041
  H      0.773629    1.198994    1.340554
  O      1.302101    0.000048   -0.261597
  H     -1.276024    2.023350    0.218037
  H     -0.773667    1.198945   -1.340536
  H      1.276019   -2.023340   -0.218063
  H      0.773662   -1.198942    1.340514

 Total Charge           Charge          ....    1
 Multiplicity           Mult            ....    2
 Number of Electrons    NEL             ....   47
 Basis Dimension        Dim             ....  460

ORBITAL ENERGIES
----------------
                 SPIN UP ORBITALS
  NO   OCC          E(Eh)            E(eV)
   0   1.0000     -19.164949      -521.5048
   1   1.0000     -19.164947      -521.5047
   2   1.0000     -10.218250      -278.0527
   3   1.0000     -10.218248      -278.0527
   4   1.0000     -10.218137      -278.0496
   5   1.0000     -10.218134      -278.0496
   6   1.0000      -1.143254       -31.1095
   7   1.0000      -1.105436       -30.0804
   8   1.0000      -0.819096       -22.2887
   9   1.0000      -0.718889       -19.5620
  10   1.0000      -0.716856       -19.5066
  11   1.0000      -0.613276       -16.6881
  12   1.0000      -0.556914       -15.1544
  13   1.0000      -0.538846       -14.6627
  14   1.0000      -0.515915       -14.0388
  15   1.0000      -0.510901       -13.9023
  16   1.0000      -0.503324       -13.6961
  17   1.0000      -0.437472       -11.9042
  18   1.0000      -0.420204       -11.4343
  19   1.0000      -0.410738       -11.1767
  20   1.0000      -0.392669       -10.6851
  21   1.0000      -0.353584        -9.6215
  22   1.0000      -0.348466        -9.4822
  23   1.0000      -0.287255        -7.8166
  24   0.0000      -0.004681        -0.1274
  25   0.0000       0.007976         0.2170
  26   0.0000       0.010655         0.2899
  27   0.0000       0.013549         0.3687
  28   0.0000       0.022802         0.6205

                 SPIN DOWN ORBITALS
  NO   OCC          E(Eh)            E(eV)
   0   1.0000     -19.155998      -521.2612
   1   1.0000     -19.155996      -521.2611
   2   1.0000     -10.216514      -278.0055
   3   1.0000     -10.216514      -278.0055
   4   1.0000     -10.216419      -278.0029
   5   1.0000     -10.216415      -278.0028
   6   1.0000      -1.129019       -30.7222
   7   1.0000      -1.089616       -29.6500
   8   1.0000      -0.811182       -22.0734
   9   1.0000      -0.715052       -19.4575
  10   1.0000      -0.701018       -19.0757
  11   1.0000      -0.606494       -16.5035
  12   1.0000      -0.542781       -14.7698
  13   1.0000      -0.531493       -14.4627
  14   1.0000      -0.512459       -13.9447
  15   1.0000      -0.507043       -13.7973
  16   1.0000      -0.488272       -13.2866
  17   1.0000      -0.409338       -11.1387
  18   1.0000      -0.407903       -11.0996
  19   1.0000      -0.404749       -11.0138
  20   1.0000      -0.380893       -10.3646
  21   1.0000      -0.343437        -9.3454
  22   1.0000      -0.329378        -8.9628
  23   0.0000      -0.219233        -5.9656
  24   0.0000      -0.003087        -0.0840
  25   0.0000       0.009389         0.2555
  26   0.0000       0.011713         0.3187
  27   0.0000       0.014451         0.3932

MULLIKEN ATOMIC CHARGES AND SPIN POPULATIONS
--------------------------------------------
   0 C :    0.168106    0.069623
   1 C :    0.168104    0.069645
   2 H :    0.107682    0.015501
   3 H :    0.175128    0.015148
   4 O :   -0.401846    0.299440
   5 C :    0.168067    0.069615
   6 C :    0.168063    0.069621
   7 H :    0.107661    0.015522
   8 H :    0.175168    0.015141
   9 O :   -0.401859    0.299434
  10 H :    0.107679    0.015508
  11 H :    0.175195    0.015148
  12 H :    0.107626    0.015504
  13 H :    0.175224    0.015149
Sum of atomic charges         :    1.0000000

LOEWDIN ATOMIC CHARGES AND SPIN POPULATIONS
-------------------------------------------
   0 C :    0.138943    0.097185
   1 C :    0.138933    0.097186
   2 H :   -0.111260    0.014819
   3 H :   -0.114406    0.014203
   4 O :    0.673461    0.247585
   5 C :    0.138939    0.097185
   6 C :    0.138937    0.097186
   7 H :   -0.111261    0.014818
   8 H :   -0.114405    0.014203
   9 O :    0.673456    0.247586
  10 H :   -0.111258    0.014819
  11 H :   -0.114410    0.014203
  12 H :   -0.111259    0.014819
  13 H :   -0.114411    0.014202

  Mayer bond orders larger than 0.100000
B(  0-C ,  1-C ) :   0.9419 B(  0-C ,  6-C ) :   0.1349 B(  0-C ,  9-O ) :   0.9115
B(  0-C , 12-H ) :   0.9772 B(  0-C , 13-H ) :   0.8980 B(  1-C ,  2-H ) :   0.9771
B(  1-C ,  3-H ) :   0.8981 B(  1-C ,  4-O ) :   0.9116 B(  1-C ,  5-C ) :   0.1349
B(  4-O ,  5-C ) :   0.9115 B(  4-O ,  9-O ) :   0.1365 B(  5-C ,  6-C ) :   0.9419
B(  5-C , 10-H ) :   0.9771 B(  5-C , 11-H ) :   0.8981 B(  6-C ,  7-H ) :   0.9771
B(  6-C ,  8-H ) :   0.8981 B(  6-C ,  9-O ) :   0.9116

Dispersion correction           -0.011933784
FINAL SINGLE POINT ENERGY      -307.586995903270

DIPOLE MOMENT
-------------

Method             : SCF
Type of density    : Electron Density
Multiplicity       :   2
Irrep              :   0
Energy             :  -307.5750621191309619 Eh
Relativity type    :
Basis              : AO
                                X                 Y                 Z
Electronic contribution:     -0.000022722      -0.000004254       0.000025222
Nuclear contribution   :      0.000002668       0.000005347      -0.000029732
                        -----------------------------------------
Total Dipole Moment    :     -0.000020054       0.000001093      -0.000004510
                        -----------------------------------------
Magnitude (a.u.)       :      0.000020584
Magnitude (Debye)      :      0.000052319

Rotational constants in cm-1:             0.169249             0.162821             0.094443
Rotational constants in MHz :          5073.947219          4881.263290          2831.336454

                             ****ORCA TERMINATED NORMALLY****
TOTAL RUN TIME: 0 days 0 hours 2 minutes 32 seconds 460 msec
