                         Program Version 6.0.0  -   RELEASE  -
|  1> !PBE0 aug-cc-pVTZ d3 TightSCF SlowConv RIJCOSX defgrid2
|  2>
|  3> %pal
|  4> nprocs 4
|  5> end
|  6>
|  7> %scf
|  8> MaxIter 1500
|  9> end
| 10>
| 11> %maxcore 3000
| 12>
| 13> !CPCM
| 14> %cpcm smd true
| 15> SMDsolvent "MeCN"
| 16> surfacetype gepol_ses
| 17> rsolv 2.19
| 18> end
| 19>
| 20> * xyz 1 2
| 21> C           0.96002552011709     -1.32253975774944      0.00002107203161
| 22> C           2.30946577689281     -1.05292578484351     -0.00001183018851
| 23> C           2.75162476164071      0.28756052755572     -0.00002650301661
| 24> C           1.83902538005307      1.36187223575537     -0.00000118304244
| 25> C           0.48711647576379      1.10797066538425      0.00002893131122
| 26> C           0.02041417697925     -0.24724272024865      0.00003631726405
| 27> C          -1.36049677571781     -0.55035510408661      0.00004151636512
| 28> N          -2.24435922885682      0.43165315940707      0.00003462017491
| 29> O          -3.46568256477989     -0.02410885729296      0.00002059528734
| 30> H          -4.06414072403569      0.75247060999126      0.00003013023410
| 31> H          -1.71241527206750     -1.59215357045924      0.00004127844656
| 32> H          -0.24324441524782      1.92013568517355      0.00004228420146
| 33> H           2.20910910746605      2.39016696582870     -0.00001172730682
| 34> H           3.82614866589464      0.49606739820897     -0.00005739041351
| 35> H           3.03863533465800     -1.86708723654366     -0.00002808352063
| 36> H           0.59646668124012     -2.35410821608081      0.00003057217215
| 37> *
| 38>
| 39>                          ****END OF INPUT****

CARTESIAN COORDINATES (ANGSTROEM)
---------------------------------
  C      0.960026   -1.322540    0.000021
  C      2.309466   -1.052926   -0.000012
  C      2.751625    0.287561   -0.000027
  C      1.839025    1.361872   -0.000001
  C      0.487116    1.107971    0.000029
  C      0.020414   -0.247243    0.000036
  C     -1.360497   -0.550355    0.000042
  N     -2.244359    0.431653    0.000035
  O     -3.465683   -0.024109    0.000021
  H     -4.064141    0.752471    0.000030
  H     -1.712415   -1.592154    0.000041
  H     -0.243244    1.920136    0.000042
  H      2.209109    2.390167   -0.000012
  H      3.826149    0.496067   -0.000057
  H      3.038635   -1.867087   -0.000028
  H      0.596467   -2.354108    0.000031

 Total Charge           Charge          ....    1
 Multiplicity           Mult            ....    2
 Number of Electrons    NEL             ....   63
 Basis Dimension        Dim             ....  575

ORBITAL ENERGIES
----------------
                 SPIN UP ORBITALS
  NO   OCC          E(Eh)            E(eV)
   0   1.0000     -19.342740      -526.3427
   1   1.0000     -14.519329      -395.0910
   2   1.0000     -10.324089      -280.9327
   3   1.0000     -10.308778      -280.5161
   4   1.0000     -10.293304      -280.0950
   5   1.0000     -10.283663      -279.8327
   6   1.0000     -10.282470      -279.8002
   7   1.0000     -10.269232      -279.4400
   8   1.0000     -10.267036      -279.3803
   9   1.0000      -1.233795       -33.5733
  10   1.0000      -0.963148       -26.2086
  11   1.0000      -0.919374       -25.0174
  12   1.0000      -0.827289       -22.5117
  13   1.0000      -0.814015       -22.1505
  14   1.0000      -0.717419       -19.5220
  15   1.0000      -0.669447       -18.2166
  16   1.0000      -0.639386       -17.3986
  17   1.0000      -0.606592       -16.5062
  18   1.0000      -0.576822       -15.6961
  19   1.0000      -0.541291       -14.7293
  20   1.0000      -0.537215       -14.6184
  21   1.0000      -0.511090       -13.9075
  22   1.0000      -0.490445       -13.3457
  23   1.0000      -0.471072       -12.8185
  24   1.0000      -0.465834       -12.6760
  25   1.0000      -0.441656       -12.0181
  26   1.0000      -0.402060       -10.9406
  27   1.0000      -0.390020       -10.6130
  28   1.0000      -0.368673       -10.0321
  29   1.0000      -0.353080        -9.6078
  30   1.0000      -0.311044        -8.4639
  31   1.0000      -0.297413        -8.0930
  32   0.0000      -0.111366        -3.0304
  33   0.0000      -0.043344        -1.1794
  34   0.0000      -0.007750        -0.2109
  35   0.0000      -0.002955        -0.0804
  36   0.0000       0.004372         0.1190

                 SPIN DOWN ORBITALS
  NO   OCC          E(Eh)            E(eV)
   0   1.0000     -19.336137      -526.1630
   1   1.0000     -14.511896      -394.8888
   2   1.0000     -10.324708      -280.9496
   3   1.0000     -10.306073      -280.4425
   4   1.0000     -10.289025      -279.9786
   5   1.0000     -10.281840      -279.7831
   6   1.0000     -10.281325      -279.7691
   7   1.0000     -10.269813      -279.4558
   8   1.0000     -10.268060      -279.4081
   9   1.0000      -1.219789       -33.1921
  10   1.0000      -0.952042       -25.9064
  11   1.0000      -0.909928       -24.7604
  12   1.0000      -0.817940       -22.2573
  13   1.0000      -0.811179       -22.0733
  14   1.0000      -0.712147       -19.3785
  15   1.0000      -0.666268       -18.1301
  16   1.0000      -0.634625       -17.2690
  17   1.0000      -0.600583       -16.3427
  18   1.0000      -0.574098       -15.6220
  19   1.0000      -0.537901       -14.6370
  20   1.0000      -0.508773       -13.8444
  21   1.0000      -0.495428       -13.4813
  22   1.0000      -0.487859       -13.2753
  23   1.0000      -0.470412       -12.8006
  24   1.0000      -0.463581       -12.6147
  25   1.0000      -0.420831       -11.4514
  26   1.0000      -0.401104       -10.9146
  27   1.0000      -0.387886       -10.5549
  28   1.0000      -0.345597        -9.4042
  29   1.0000      -0.337135        -9.1739
  30   1.0000      -0.307169        -8.3585
  31   0.0000      -0.203800        -5.5457
  32   0.0000      -0.079845        -2.1727
  33   0.0000      -0.033893        -0.9223
  34   0.0000      -0.002314        -0.0630
  35   0.0000       0.005087         0.1384

MULLIKEN ATOMIC CHARGES AND SPIN POPULATIONS
--------------------------------------------
   0 C :   -0.792691    0.046483
   1 C :   -0.596455   -0.025695
   2 C :   -0.233276    0.260476
   3 C :   -0.767486   -0.063103
   4 C :   -0.640233    0.096216
   5 C :    1.357526    0.213849
   6 C :    0.145076   -0.032609
   7 N :   -0.317743    0.315246
   8 O :   -0.210361    0.207835
   9 H :    0.233772   -0.008250
  10 H :    0.506201    0.003355
  11 H :    0.222375   -0.009637
  12 H :    0.681721    0.003241
  13 H :    0.560932   -0.002317
  14 H :    0.685277    0.003085
  15 H :    0.165366   -0.008174
Sum of atomic charges         :    1.0000000

LOEWDIN ATOMIC CHARGES AND SPIN POPULATIONS
-------------------------------------------
   0 C :    0.263668    0.058927
   1 C :    0.262998    0.037778
   2 C :    0.278330    0.135300
   3 C :    0.259697    0.029374
   4 C :    0.255926    0.073726
   5 C :   -0.107639    0.111762
   6 C :    0.089739    0.054736
   7 N :    0.197509    0.244001
   8 O :    0.750674    0.204037
   9 H :   -0.399287    0.013331
  10 H :   -0.136033   -0.005454
  11 H :   -0.161215    0.010076
  12 H :   -0.145144   -0.004521
  13 H :   -0.130753    0.030560
  14 H :   -0.143306   -0.001496
  15 H :   -0.135166    0.007861

  Mayer bond orders larger than 0.100000
B(  0-C ,  1-C ) :   1.4243 B(  0-C ,  2-C ) :  -0.1137 B(  0-C ,  4-C ) :  -0.3484
B(  0-C ,  5-C ) :   0.3981 B(  0-C , 14-H ) :  -0.1445 B(  0-C , 15-H ) :   1.3695
B(  1-C ,  2-C ) :   1.3116 B(  1-C ,  3-C ) :   0.1385 B(  1-C , 14-H ) :   0.2691
B(  2-C ,  3-C ) :   1.2730 B(  2-C ,  4-C ) :  -0.1517 B(  2-C ,  5-C ) :  -0.1696
B(  2-C ,  6-C ) :   0.1471 B(  2-C , 12-H ) :   0.1173 B(  2-C , 13-H ) :   0.5053
B(  3-C ,  4-C ) :   1.3899 B(  3-C ,  5-C ) :   0.1008 B(  3-C , 12-H ) :   0.2544
B(  4-C ,  5-C ) :   0.6235 B(  4-C ,  6-C ) :   0.1305 B(  4-C , 11-H ) :   1.0590
B(  4-C , 15-H ) :   0.1045 B(  5-C ,  6-C ) :   0.5357 B(  5-C ,  7-N ) :  -0.1017
B(  6-C ,  7-N ) :   0.8405 B(  6-C , 10-H ) :   0.5307 B(  6-C , 15-H ) :  -0.1606
B(  7-N ,  8-O ) :   0.7980 B(  8-O ,  9-H ) :   0.9707 B( 11-H , 15-H ) :   0.1381

Dispersion correction           -0.013877272
FINAL SINGLE POINT ENERGY      -400.353497865397

DIPOLE MOMENT
-------------

Method             : SCF
Type of density    : Electron Density
Multiplicity       :   2
Irrep              :   0
Energy             :  -400.3396205938746562 Eh
Relativity type    :
Basis              : AO
                                X                 Y                 Z
Electronic contribution:     -3.433062278       0.165946907       0.000439031
Nuclear contribution   :      3.309117951      -0.259125904      -0.000059906
                        -----------------------------------------
Total Dipole Moment    :     -0.123944327      -0.093178997       0.000379124
                        -----------------------------------------
Magnitude (a.u.)       :      0.155063424
Magnitude (Debye)      :      0.394139901

Rotational constants in cm-1:             0.166470             0.031016             0.026145
Rotational constants in MHz :          4990.645062           929.841763           783.805511

                             ****ORCA TERMINATED NORMALLY****
TOTAL RUN TIME: 0 days 0 hours 6 minutes 9 seconds 69 msec
