                         Program Version 6.0.0  -   RELEASE  -
|  1> !PBE0 def2-SV(p) Opt Freq d3 TightSCF SlowConv RIJCOSX defgrid2
|  2>
|  3> %pal
|  4> nprocs 4
|  5> end
|  6>
|  7> %scf
|  8> MaxIter 1500
|  9> end
| 10>
| 11> %maxcore 3000
| 12>
| 13>
| 14>
| 15> * xyz 0 2
| 16> S    -0.0001153    1.3639089   -0.0002662
| 17> C    -1.3728886    0.2512950   -0.0015906
| 18> C    -2.6317428    0.8127715   -0.0042182
| 19> C    -3.7873767    0.0174033   -0.0064563
| 20> C    -3.6019158   -1.3814403   -0.0109085
| 21> C    -2.3498760   -1.9329364   -0.0112306
| 22> H    -2.2215636   -3.0046465   -0.0102904
| 23> C    -1.1722348   -1.1507503   -0.0050396
| 24> N    -0.0000315   -1.8005855   -0.0011173
| 25> C     1.1721384   -1.1506939    0.0030967
| 26> C     2.3498193   -1.9328278    0.0088941
| 27> C     3.6018279   -1.3812652    0.0087589
| 28> C     3.7872080    0.0175915    0.0048724
| 29> C     2.6315413    0.8129058    0.0031502
| 30> C     1.3727155    0.2513647    0.0003395
| 31> H     2.6979737    1.8889257    0.0166293
| 32> N     5.0342324    0.5730065    0.0001025
| 33> C     5.2094799    1.9941088   -0.1771333
| 34> H     4.6137281    2.3518646   -1.0194680
| 35> H     4.9161225    2.5507337    0.7195903
| 36> H     6.2549633    2.2038605   -0.3886081
| 37> C     6.2090230   -0.2459052    0.1807169
| 38> H     7.0654380    0.3940432    0.3776299
| 39> H     6.0834954   -0.9168398    1.0330479
| 40> H     6.4206772   -0.8462251   -0.7105775
| 41> H     4.4535848   -2.0409662   -0.0021889
| 42> H     2.2215585   -3.0045443    0.0074766
| 43> H    -4.4536194   -2.0412132   -0.0002953
| 44> N    -5.0344048    0.5728142   -0.0017960
| 45> C    -6.2092466   -0.2462298   -0.1814036
| 46> H    -6.4203041   -0.8463290    0.7101866
| 47> H    -6.0842000   -0.9173768   -1.0336316
| 48> H    -7.0658359    0.3935902   -0.3779702
| 49> C    -5.2095873    1.9938501    0.1760744
| 50> H    -4.6148271    2.3510759    1.0193543
| 51> H    -4.9149369    2.5508491   -0.7199783
| 52> H    -6.2552960    2.2037450    0.3862450
| 53> H    -2.6982206    1.8887941   -0.0170891
| 54> *
| 55>
| 56>                          ****END OF INPUT****
 Total Charge           Charge          ....    0
 Multiplicity           Mult            ....    2
 Number of Electrons    NEL             ....  151
Dispersion correction           -0.044661304
FINAL SINGLE POINT ENERGY     -1181.224193317471
Dispersion correction             ... done (  0.1 sec)
Dispersion correction           -0.044513905
FINAL SINGLE POINT ENERGY     -1181.227984971458
Dispersion correction             ... done (  0.1 sec)
Dispersion correction           -0.044507707
FINAL SINGLE POINT ENERGY     -1181.228339811936
Dispersion correction             ... done (  0.1 sec)
FINAL SINGLE POINT ENERGY     -1181.228547068932
FINAL SINGLE POINT ENERGY     -1181.228660140249
FINAL SINGLE POINT ENERGY     -1181.228852653011
FINAL SINGLE POINT ENERGY     -1181.228995532514
Dispersion correction             ... done (  0.1 sec)
Dispersion correction           -0.044541485
FINAL SINGLE POINT ENERGY     -1181.229066430993
Dispersion correction             ... done (  0.1 sec)
Dispersion correction           -0.044536741
FINAL SINGLE POINT ENERGY     -1181.229080363553
Dispersion correction             ... done (  0.1 sec)
                    ***********************HURRAY********************

CARTESIAN COORDINATES (ANGSTROEM)
---------------------------------
  S     -0.000110    1.332322    0.000003
  C     -1.363676    0.234649   -0.005071
  C     -2.631112    0.809187   -0.009315
  C     -3.797496    0.017489   -0.013531
  C     -3.626907   -1.391081   -0.012960
  C     -2.367112   -1.949348   -0.008743
  H     -2.236850   -3.034590   -0.008381
  C     -1.178210   -1.176687   -0.004723
  N     -0.000022   -1.834465   -0.000981
  C      1.178128   -1.176622    0.003213
  C      2.367067   -1.949225    0.006678
  C      3.626837   -1.390901    0.011261
  C      3.797351    0.017676    0.012932
  C      2.630929    0.809317    0.009086
  C      1.363520    0.234724    0.004450
  H      2.702928    1.898269    0.009523
  N      5.047564    0.587789    0.017889
  C      5.181721    2.019273    0.018395
  H      4.723629    2.480890   -0.878827
  H      4.713624    2.480520    0.910580
  H      6.248459    2.286458    0.024683
  C      6.218903   -0.247656    0.019874
  H      7.117464    0.386383    0.025755
  H      6.262728   -0.901878    0.912689
  H      6.270307   -0.896026   -0.876937
  H      4.493688   -2.052821    0.013450
  H      2.236853   -3.034472    0.005475
  H     -4.493729   -2.053035   -0.015828
  N     -5.047733    0.587550   -0.017870
  C     -6.219047   -0.247928   -0.021036
  H     -6.269484   -0.898438    0.874228
  H     -6.263817   -0.900010   -0.915419
  H     -7.117629    0.386100   -0.024307
  C     -5.181932    2.019029   -0.019967
  H     -4.723521    2.481604    0.876576
  H     -4.714182    2.479352   -0.912833
  H     -6.248678    2.286186   -0.026063
  H     -2.703152    1.898142   -0.009038

 Multiplicity           Mult            ....    2
 Number of Electrons    NEL             ....  151
 Basis Dimension        Dim             ....  320

ORBITAL ENERGIES
----------------
                 SPIN UP ORBITALS
  NO   OCC          E(Eh)            E(eV)
   0   1.0000     -89.019791     -2422.3517
   1   1.0000     -14.420803      -392.4100
   2   1.0000     -14.420802      -392.4100
   3   1.0000     -14.361852      -390.8059
   4   1.0000     -10.277269      -279.6587
   5   1.0000     -10.277267      -279.6587
   6   1.0000     -10.265517      -279.3389
   7   1.0000     -10.265493      -279.3383
   8   1.0000     -10.264976      -279.3242
   9   1.0000     -10.264975      -279.3242
  10   1.0000     -10.264905      -279.3223
  11   1.0000     -10.264904      -279.3222
  12   1.0000     -10.253838      -279.0211
  13   1.0000     -10.253810      -279.0204
  14   1.0000     -10.228384      -278.3285
  15   1.0000     -10.228366      -278.3280
  16   1.0000     -10.224848      -278.2323
  17   1.0000     -10.224845      -278.2322
  18   1.0000     -10.224047      -278.2105
  19   1.0000     -10.224023      -278.2098
  20   1.0000      -8.020409      -218.2464
  21   1.0000      -5.962117      -162.2375
  22   1.0000      -5.958440      -162.1374
  23   1.0000      -5.954765      -162.0374
  24   1.0000      -0.981248       -26.7011
  25   1.0000      -0.981015       -26.6948
  26   1.0000      -0.946741       -25.7621
  27   1.0000      -0.866515       -23.5791
  28   1.0000      -0.857398       -23.3310
  29   1.0000      -0.819224       -22.2922
  30   1.0000      -0.772055       -21.0087
  31   1.0000      -0.768726       -20.9181
  32   1.0000      -0.757151       -20.6031
  33   1.0000      -0.743517       -20.2321
  34   1.0000      -0.736924       -20.0527
  35   1.0000      -0.700148       -19.0520
  36   1.0000      -0.684743       -18.6328
  37   1.0000      -0.647563       -17.6211
  38   1.0000      -0.617351       -16.7990
  39   1.0000      -0.614413       -16.7190
  40   1.0000      -0.597468       -16.2579
  41   1.0000      -0.559435       -15.2230
  42   1.0000      -0.557893       -15.1810
  43   1.0000      -0.529648       -14.4125
  44   1.0000      -0.520264       -14.1571
  45   1.0000      -0.518163       -14.0999
  46   1.0000      -0.495118       -13.4728
  47   1.0000      -0.489474       -13.3193
  48   1.0000      -0.489300       -13.3145
  49   1.0000      -0.462298       -12.5798
  50   1.0000      -0.459589       -12.5060
  51   1.0000      -0.444904       -12.1065
  52   1.0000      -0.439196       -11.9511
  53   1.0000      -0.432482       -11.7684
  54   1.0000      -0.429756       -11.6942
  55   1.0000      -0.429738       -11.6938
  56   1.0000      -0.424900       -11.5621
  57   1.0000      -0.424875       -11.5614
  58   1.0000      -0.415438       -11.3046
  59   1.0000      -0.412490       -11.2244
  60   1.0000      -0.401016       -10.9122
  61   1.0000      -0.397431       -10.8147
  62   1.0000      -0.386301       -10.5118
  63   1.0000      -0.384010       -10.4495
  64   1.0000      -0.380488       -10.3536
  65   1.0000      -0.352175        -9.5832
  66   1.0000      -0.344044        -9.3619
  67   1.0000      -0.342366        -9.3163
  68   1.0000      -0.335596        -9.1320
  69   1.0000      -0.306700        -8.3457
  70   1.0000      -0.271895        -7.3986
  71   1.0000      -0.260745        -7.0952
  72   1.0000      -0.253903        -6.9090
  73   1.0000      -0.218462        -5.9446
  74   1.0000      -0.206677        -5.6240
  75   1.0000      -0.148283        -4.0350
  76   0.0000      -0.008422        -0.2292
  77   0.0000       0.002094         0.0570
  78   0.0000       0.012662         0.3446
  79   0.0000       0.045557         1.2397
  80   0.0000       0.063596         1.7305

                 SPIN DOWN ORBITALS
  NO   OCC          E(Eh)            E(eV)
   0   1.0000     -89.019099     -2422.3328
   1   1.0000     -14.419258      -392.3680
   2   1.0000     -14.419257      -392.3679
   3   1.0000     -14.352213      -390.5436
   4   1.0000     -10.275245      -279.6036
   5   1.0000     -10.275244      -279.6036
   6   1.0000     -10.265096      -279.3275
   7   1.0000     -10.265095      -279.3274
   8   1.0000     -10.265025      -279.3255
   9   1.0000     -10.265025      -279.3255
  10   1.0000     -10.262974      -279.2697
  11   1.0000     -10.262949      -279.2690
  12   1.0000     -10.255549      -279.0677
  13   1.0000     -10.255522      -279.0669
  14   1.0000     -10.229715      -278.3647
  15   1.0000     -10.229696      -278.3642
  16   1.0000     -10.225576      -278.2521
  17   1.0000     -10.225574      -278.2520
  18   1.0000     -10.221916      -278.1525
  19   1.0000     -10.221890      -278.1518
  20   1.0000      -8.019722      -218.2277
  21   1.0000      -5.961783      -162.2284
  22   1.0000      -5.958141      -162.1292
  23   1.0000      -5.952249      -161.9689
  24   1.0000      -0.978396       -26.6235
  25   1.0000      -0.978200       -26.6182
  26   1.0000      -0.936464       -25.4825
  27   1.0000      -0.863965       -23.5097
  28   1.0000      -0.850249       -23.1364
  29   1.0000      -0.816386       -22.2150
  30   1.0000      -0.771082       -20.9822
  31   1.0000      -0.766243       -20.8505
  32   1.0000      -0.756542       -20.5865
  33   1.0000      -0.742430       -20.2025
  34   1.0000      -0.733441       -19.9579
  35   1.0000      -0.699165       -19.0252
  36   1.0000      -0.684933       -18.6380
  37   1.0000      -0.643527       -17.5113
  38   1.0000      -0.615561       -16.7503
  39   1.0000      -0.611500       -16.6398
  40   1.0000      -0.595318       -16.1994
  41   1.0000      -0.557562       -15.1720
  42   1.0000      -0.556691       -15.1483
  43   1.0000      -0.528029       -14.3684
  44   1.0000      -0.518213       -14.1013
  45   1.0000      -0.517367       -14.0783
  46   1.0000      -0.494140       -13.4462
  47   1.0000      -0.485840       -13.2204
  48   1.0000      -0.485708       -13.2168
  49   1.0000      -0.461499       -12.5580
  50   1.0000      -0.458507       -12.4766
  51   1.0000      -0.443933       -12.0800
  52   1.0000      -0.438433       -11.9304
  53   1.0000      -0.432104       -11.7581
  54   1.0000      -0.429141       -11.6775
  55   1.0000      -0.424482       -11.5507
  56   1.0000      -0.424460       -11.5501
  57   1.0000      -0.416013       -11.3203
  58   1.0000      -0.414952       -11.2914
  59   1.0000      -0.411677       -11.2023
  60   1.0000      -0.400151       -10.8887
  61   1.0000      -0.397038       -10.8039
  62   1.0000      -0.382296       -10.4028
  63   1.0000      -0.379819       -10.3354
  64   1.0000      -0.379185       -10.3181
  65   1.0000      -0.343285        -9.3413
  66   1.0000      -0.339230        -9.2309
  67   1.0000      -0.337425        -9.1818
  68   1.0000      -0.319938        -8.7060
  69   1.0000      -0.296623        -8.0715
  70   1.0000      -0.266291        -7.2462
  71   1.0000      -0.243929        -6.6377
  72   1.0000      -0.243834        -6.6351
  73   1.0000      -0.212137        -5.7725
  74   1.0000      -0.199333        -5.4241
  75   0.0000      -0.073157        -1.9907
  76   0.0000      -0.002905        -0.0790
  77   0.0000       0.013532         0.3682
  78   0.0000       0.020503         0.5579
  79   0.0000       0.047412         1.2901

MULLIKEN ATOMIC CHARGES AND SPIN POPULATIONS
--------------------------------------------
   0 S :    0.126732    0.111181
   1 C :   -0.032453    0.160727
   2 C :   -0.265912   -0.103567
   3 C :    0.292386    0.135154
   4 C :   -0.190565   -0.068934
   5 C :   -0.109298    0.155789
   6 H :    0.082587   -0.008717
   7 C :    0.056762   -0.112343
   8 N :   -0.170111    0.432882
   9 C :    0.056744   -0.112342
  10 C :   -0.109289    0.155790
  11 C :   -0.190573   -0.068935
  12 C :    0.292387    0.135154
  13 C :   -0.265910   -0.103566
  14 C :   -0.032442    0.160725
  15 H :    0.069076    0.004033
  16 N :   -0.355018    0.053020
  17 C :   -0.215014   -0.006383
  18 H :    0.137667    0.005609
  19 H :    0.137816    0.005578
  20 H :    0.138222    0.000098
  21 C :   -0.216168   -0.006502
  22 H :    0.137655    0.000068
  23 H :    0.138075    0.005914
  24 H :    0.137881    0.005942
  25 H :    0.077990    0.002483
  26 H :    0.082587   -0.008717
  27 H :    0.077992    0.002483
  28 N :   -0.355019    0.053021
  29 C :   -0.216170   -0.006502
  30 H :    0.137968    0.005925
  31 H :    0.137989    0.005930
  32 H :    0.137655    0.000068
  33 C :   -0.215014   -0.006383
  34 H :    0.137716    0.005597
  35 H :    0.137767    0.005590
  36 H :    0.138223    0.000098
  37 H :    0.069079    0.004033
Sum of atomic charges         :   -0.0000000

LOEWDIN ATOMIC CHARGES AND SPIN POPULATIONS
-------------------------------------------
   0 S :    0.388549    0.112953
   1 C :   -0.165418    0.118803
   2 C :   -0.197308   -0.062866
   3 C :    0.020136    0.096887
   4 C :   -0.172125   -0.035018
   5 C :   -0.103720    0.117595
   6 H :    0.136099   -0.004300
   7 C :   -0.049643   -0.055055
   8 N :   -0.113256    0.392522
   9 C :   -0.049643   -0.055054
  10 C :   -0.103720    0.117596
  11 C :   -0.172126   -0.035019
  12 C :    0.020136    0.096887
  13 C :   -0.197307   -0.062865
  14 C :   -0.165418    0.118802
  15 H :    0.128306    0.001824
  16 N :   -0.085650    0.055906
  17 C :   -0.248860   -0.002160
  18 H :    0.117297    0.004073
  19 H :    0.117408    0.004052
  20 H :    0.124226    0.000060
  21 C :   -0.248260   -0.002061
  22 H :    0.124149    0.000046
  23 H :    0.117413    0.004166
  24 H :    0.117296    0.004185
  25 H :    0.131007    0.001125
  26 H :    0.136099   -0.004300
  27 H :    0.131007    0.001125
  28 N :   -0.085650    0.055906
  29 C :   -0.248260   -0.002061
  30 H :    0.117361    0.004173
  31 H :    0.117348    0.004178
  32 H :    0.124150    0.000046
  33 C :   -0.248861   -0.002160
  34 H :    0.117321    0.004067
  35 H :    0.117384    0.004058
  36 H :    0.124226    0.000060
  37 H :    0.128306    0.001824

  Mayer bond orders larger than 0.100000
B(  0-S ,  1-C ) :   1.0300 B(  0-S , 14-C ) :   1.0300 B(  1-C ,  2-C ) :   1.3844
B(  1-C ,  7-C ) :   1.2636 B(  2-C ,  3-C ) :   1.3094 B(  2-C , 37-H ) :   0.9490
B(  3-C ,  4-C ) :   1.2498 B(  3-C , 28-N ) :   1.1400 B(  4-C ,  5-C ) :   1.4241
B(  4-C , 27-H ) :   0.9601 B(  5-C ,  6-H ) :   0.9554 B(  5-C ,  7-C ) :   1.2930
B(  7-C ,  8-N ) :   1.3749 B(  8-N ,  9-C ) :   1.3749 B(  9-C , 10-C ) :   1.2930
B(  9-C , 14-C ) :   1.2636 B( 10-C , 11-C ) :   1.4241 B( 10-C , 26-H ) :   0.9554
B( 11-C , 12-C ) :   1.2498 B( 11-C , 25-H ) :   0.9601 B( 12-C , 13-C ) :   1.3094
B( 12-C , 16-N ) :   1.1400 B( 13-C , 14-C ) :   1.3844 B( 13-C , 15-H ) :   0.9490
B( 16-N , 17-C ) :   1.0170 B( 16-N , 21-C ) :   1.0138 B( 17-C , 18-H ) :   0.9384
B( 17-C , 19-H ) :   0.9383 B( 17-C , 20-H ) :   0.9492 B( 21-C , 22-H ) :   0.9497
B( 21-C , 23-H ) :   0.9398 B( 21-C , 24-H ) :   0.9399 B( 28-N , 29-C ) :   1.0138
B( 28-N , 33-C ) :   1.0171 B( 29-C , 30-H ) :   0.9399 B( 29-C , 31-H ) :   0.9398
B( 29-C , 32-H ) :   0.9497 B( 33-C , 34-H ) :   0.9383 B( 33-C , 35-H ) :   0.9383
B( 33-C , 36-H ) :   0.9492

Dispersion correction           -0.044536794
FINAL SINGLE POINT ENERGY     -1181.229082329990

DIPOLE MOMENT
-------------

Method             : SCF
Type of density    : Electron Density
Multiplicity       :   2
Irrep              :   0
Energy             : -1181.1845455362883968 Eh
Relativity type    :
Basis              : AO
                                X                 Y                 Z
Electronic contribution:      0.000047013      -3.924071490       0.005092203
Nuclear contribution   :     -0.000087217       5.020383448      -0.005360537
                        -----------------------------------------
Total Dipole Moment    :     -0.000040203       1.096311958      -0.000268334
                        -----------------------------------------
Magnitude (a.u.)       :      1.096311991
Magnitude (Debye)      :      2.786603627

VIBRATIONAL FREQUENCIES
-----------------------

Scaling factor for frequencies =  1.000000000  (already applied!)

     0:       0.00 cm**-1
     1:       0.00 cm**-1
     2:       0.00 cm**-1
     3:       0.00 cm**-1
     4:       0.00 cm**-1
     5:       0.00 cm**-1
     6:      25.19 cm**-1
     7:      49.70 cm**-1
     8:      55.43 cm**-1
     9:      60.47 cm**-1
    10:      67.44 cm**-1
    11:      87.20 cm**-1
    12:     106.99 cm**-1
    13:     141.90 cm**-1
    14:     152.27 cm**-1
    15:     168.74 cm**-1
    16:     190.75 cm**-1
    17:     221.12 cm**-1
    18:     234.82 cm**-1
    19:     243.57 cm**-1
    20:     251.86 cm**-1
    21:     271.58 cm**-1
    22:     282.85 cm**-1
    23:     356.62 cm**-1
    24:     368.79 cm**-1
    25:     394.74 cm**-1
    26:     440.99 cm**-1
    27:     447.03 cm**-1
    28:     454.36 cm**-1
    29:     460.61 cm**-1
    30:     466.52 cm**-1
    31:     495.16 cm**-1
    32:     508.03 cm**-1
    33:     528.46 cm**-1
    34:     562.76 cm**-1
    35:     614.15 cm**-1
    36:     616.30 cm**-1
    37:     619.76 cm**-1
    38:     695.15 cm**-1
    39:     695.41 cm**-1
    40:     753.69 cm**-1
    41:     769.33 cm**-1
    42:     792.24 cm**-1
    43:     824.14 cm**-1
    44:     833.03 cm**-1
    45:     834.04 cm**-1
    46:     856.51 cm**-1
    47:     859.79 cm**-1
    48:     890.24 cm**-1
    49:     928.53 cm**-1
    50:     982.17 cm**-1
    51:     982.18 cm**-1
    52:    1010.01 cm**-1
    53:    1010.13 cm**-1
    54:    1077.66 cm**-1
    55:    1092.54 cm**-1
    56:    1092.96 cm**-1
    57:    1101.88 cm**-1
    58:    1144.80 cm**-1
    59:    1144.80 cm**-1
    60:    1149.99 cm**-1
    61:    1150.00 cm**-1
    62:    1157.53 cm**-1
    63:    1162.85 cm**-1
    64:    1206.67 cm**-1
    65:    1209.43 cm**-1
    66:    1275.78 cm**-1
    67:    1292.94 cm**-1
    68:    1302.95 cm**-1
    69:    1318.15 cm**-1
    70:    1327.60 cm**-1
    71:    1376.66 cm**-1
    72:    1403.06 cm**-1
    73:    1403.19 cm**-1
    74:    1414.49 cm**-1
    75:    1420.66 cm**-1
    76:    1438.15 cm**-1
    77:    1438.62 cm**-1
    78:    1464.77 cm**-1
    79:    1464.78 cm**-1
    80:    1467.96 cm**-1
    81:    1473.71 cm**-1
    82:    1473.72 cm**-1
    83:    1481.01 cm**-1
    84:    1486.20 cm**-1
    85:    1491.02 cm**-1
    86:    1509.82 cm**-1
    87:    1516.38 cm**-1
    88:    1519.11 cm**-1
    89:    1524.05 cm**-1
    90:    1540.37 cm**-1
    91:    1566.96 cm**-1
    92:    1584.30 cm**-1
    93:    1605.93 cm**-1
    94:    1677.35 cm**-1
    95:    1699.21 cm**-1
    96:    2994.80 cm**-1
    97:    2994.90 cm**-1
    98:    3003.76 cm**-1
    99:    3004.83 cm**-1
   100:    3061.44 cm**-1
   101:    3061.46 cm**-1
   102:    3065.72 cm**-1
   103:    3065.74 cm**-1
   104:    3153.65 cm**-1
   105:    3153.66 cm**-1
   106:    3163.82 cm**-1
   107:    3163.87 cm**-1
   108:    3216.24 cm**-1
   109:    3216.44 cm**-1
   110:    3220.98 cm**-1
   111:    3221.06 cm**-1
   112:    3239.28 cm**-1
   113:    3239.42 cm**-1

IR SPECTRUM
-----------

 Mode   freq       eps      Int      T**2         TX        TY        TZ
       cm**-1   L/(mol*cm) km/mol    a.u.
----------------------------------------------------------------------------
  6:     25.19   0.000493    2.49  0.006106  ( 0.000176  0.000006 -0.078138)
  7:     49.70   0.000000    0.00  0.000000  ( 0.000243 -0.000001  0.000031)
  8:     55.43   0.000000    0.00  0.000000  (-0.000478 -0.000020  0.000075)
  9:     60.47   0.000248    1.26  0.001282  ( 0.000250  0.000102  0.035802)
 10:     67.44   0.000080    0.40  0.000370  (-0.000077 -0.000114 -0.019244)
 11:     87.20   0.000000    0.00  0.000000  ( 0.000301 -0.000027  0.000016)
 12:    106.99   0.000470    2.37  0.001370  ( 0.000002  0.037017  0.000040)
 13:    141.90   0.000029    0.15  0.000064  (-0.000117 -0.000023  0.008006)
 14:    152.27   0.000000    0.00  0.000000  (-0.000075  0.000005  0.000009)
 15:    168.74   0.000091    0.46  0.000168  ( 0.000112 -0.000022 -0.012956)
 16:    190.75   0.000004    0.02  0.000006  (-0.002539 -0.000004  0.000073)
 17:    221.12   0.000000    0.00  0.000000  (-0.000167  0.000185  0.000015)
 18:    234.82   0.000108    0.55  0.000143  (-0.000045 -0.000086  0.011977)
 19:    243.57   0.000012    0.06  0.000015  (-0.000001 -0.003913 -0.000067)
 20:    251.86   0.000000    0.00  0.000000  ( 0.000074  0.000100  0.000024)
 21:    271.58   0.001553    7.85  0.001784  (-0.000049 -0.000054  0.042238)
 22:    282.85   0.000162    0.82  0.000179  ( 0.000005 -0.013377 -0.000221)
 23:    356.62   0.000174    0.88  0.000152  (-0.012325 -0.000000 -0.000119)
 24:    368.79   0.000000    0.00  0.000000  ( 0.000236 -0.000015  0.000006)
 25:    394.74   0.000515    2.60  0.000407  (-0.020174  0.000002 -0.000089)
 26:    440.99   0.000009    0.04  0.000006  ( 0.000098  0.000031 -0.002484)
 27:    447.03   0.000497    2.51  0.000347  (-0.000002 -0.018636 -0.000027)
 28:    454.36   0.000590    2.98  0.000406  ( 0.000035 -0.000051  0.020138)
 29:    460.61   0.000185    0.94  0.000125  (-0.011201  0.000003  0.000104)
 30:    466.52   0.000000    0.00  0.000000  (-0.000096 -0.000040 -0.000010)
 31:    495.16   0.000256    1.30  0.000162  ( 0.000009  0.012713 -0.000009)
 32:    508.03   0.000005    0.02  0.000003  (-0.000004  0.001715 -0.000006)
 33:    528.46   0.001006    5.08  0.000594  ( 0.024369 -0.000000  0.000049)
 34:    562.76   0.001026    5.18  0.000569  (-0.023851  0.000001 -0.000110)
 35:    614.15   0.000000    0.00  0.000000  (-0.000076 -0.000095  0.000025)
 36:    616.30   0.000085    0.43  0.000043  (-0.000003  0.006577 -0.000062)
 37:    619.76   0.001308    6.61  0.000658  (-0.000168 -0.000030  0.025659)
 38:    695.15   0.000776    3.92  0.000349  (-0.018665 -0.000406 -0.000051)
 39:    695.41   0.000239    1.21  0.000107  ( 0.000738 -0.010336 -0.000010)
 40:    753.69   0.000000    0.00  0.000000  (-0.000015  0.000002 -0.000001)
 41:    769.33   0.000015    0.07  0.000006  (-0.000053 -0.000010  0.002429)
 42:    792.24   0.000350    1.77  0.000138  ( 0.000003 -0.011750 -0.000035)
 43:    824.14   0.000314    1.59  0.000119  ( 0.010912  0.000001  0.000032)
 44:    833.03   0.005720   28.91  0.002143  (-0.000127 -0.000019  0.046292)
 45:    834.04   0.000000    0.00  0.000000  (-0.000032  0.000038 -0.000030)
 46:    856.51   0.012522   63.28  0.004562  (-0.000209 -0.000026  0.067545)
 47:    859.79   0.000000    0.00  0.000000  ( 0.000041 -0.000011 -0.000065)
 48:    890.24   0.000696    3.52  0.000244  ( 0.000001 -0.015624  0.000026)
 49:    928.53   0.002611   13.20  0.000878  ( 0.029623  0.000001  0.000102)
 50:    982.17   0.000014    0.07  0.000004  (-0.000010  0.000008 -0.002110)
 51:    982.18   0.000062    0.32  0.000020  ( 0.000072  0.000007 -0.004455)
 52:   1010.01   0.000391    1.98  0.000121  (-0.000569  0.010982 -0.000054)
 53:   1010.13   0.014171   71.62  0.004378  (-0.066166 -0.000095 -0.000176)
 54:   1077.66   0.004454   22.51  0.001290  ( 0.035915  0.000016  0.000106)
 55:   1092.54   0.006437   32.53  0.001839  ( 0.000367  0.042878 -0.000008)
 56:   1092.96   0.001608    8.13  0.000459  ( 0.021417 -0.000723  0.000015)
 57:   1101.88   0.000730    3.69  0.000207  ( 0.000025 -0.014375 -0.000018)
 58:   1144.80   0.000003    0.02  0.000001  ( 0.000588  0.000141 -0.000742)
 59:   1144.80   0.000008    0.04  0.000002  (-0.000253  0.000013  0.001426)
 60:   1149.99   0.000000    0.00  0.000000  ( 0.000075 -0.000045  0.000039)
 61:   1150.00   0.000000    0.00  0.000000  ( 0.000189 -0.000012 -0.000113)
 62:   1157.53   0.006484   32.77  0.001748  (-0.041810 -0.000040 -0.000140)
 63:   1162.85   0.000601    3.04  0.000161  ( 0.000133 -0.012695 -0.000012)
 64:   1206.67   0.005142   25.98  0.001330  (-0.036465  0.000004 -0.000100)
 65:   1209.43   0.000006    0.03  0.000002  (-0.000119 -0.001247  0.000001)
 66:   1275.78   0.009209   46.54  0.002252  (-0.047460  0.000003 -0.000151)
 67:   1292.94   0.001104    5.58  0.000267  (-0.000012 -0.016326 -0.000006)
 68:   1302.95   0.000348    1.76  0.000083  (-0.000015  0.009132 -0.000011)
 69:   1318.15   0.009352   47.26  0.002214  ( 0.047053  0.000026  0.000121)
 70:   1327.60   0.014869   75.14  0.003495  ( 0.000029 -0.059120 -0.000014)
 71:   1376.66   0.017108   86.46  0.003878  ( 0.062274  0.000002  0.000189)
 72:   1403.06   0.000081    0.41  0.000018  ( 0.001801 -0.003842 -0.000008)
 73:   1403.19   0.038877  196.47  0.008646  ( 0.092984  0.000068  0.000312)
 74:   1414.49   0.037329  188.65  0.008235  ( 0.090749  0.000010  0.000320)
 75:   1420.66   0.005915   29.89  0.001299  ( 0.000013  0.036044 -0.000010)
 76:   1438.15   0.000028    0.14  0.000006  ( 0.002464  0.000093  0.000028)
 77:   1438.62   0.000374    1.89  0.000081  (-0.000020  0.009003  0.000042)
 78:   1464.77   0.000001    0.01  0.000000  ( 0.000098  0.000132  0.000512)
 79:   1464.78   0.000006    0.03  0.000001  (-0.000280 -0.000034 -0.001088)
 80:   1467.96   0.019078   96.41  0.004056  ( 0.063683  0.000000  0.000285)
 81:   1473.71   0.000243    1.23  0.000051  ( 0.000097 -0.000016 -0.007166)
 82:   1473.72   0.006100   30.83  0.001292  (-0.000192 -0.000039  0.035940)
 83:   1481.01   0.000005    0.03  0.000001  ( 0.000039  0.001061 -0.000010)
 84:   1486.20   0.008715   44.04  0.001830  ( 0.042776  0.000016  0.000198)
 85:   1491.02   0.001576    7.97  0.000330  ( 0.000015 -0.018164 -0.000039)
 86:   1509.82   0.004939   24.96  0.001021  (-0.031949  0.000010 -0.000130)
 87:   1516.38   0.000498    2.52  0.000103  ( 0.000039  0.010128  0.000016)
 88:   1519.11   0.011682   59.04  0.002400  (-0.048987  0.000001 -0.000205)
 89:   1524.05   0.002022   10.22  0.000414  (-0.000051  0.020346  0.000006)
 90:   1540.37   0.112049  566.25  0.022700  ( 0.150664  0.000008  0.000508)
 91:   1566.96   0.010260   51.85  0.002043  (-0.000003  0.045203 -0.000013)
 92:   1584.30   0.010356   52.34  0.002040  (-0.045165  0.000012 -0.000149)
 93:   1605.93   0.007059   35.67  0.001372  (-0.000006 -0.037036 -0.000011)
 94:   1677.35   0.238902  1207.31  0.044447  (-0.210823 -0.000002 -0.000732)
 95:   1699.21   0.005369   27.13  0.000986  (-0.000021 -0.031402  0.000000)
 96:   2994.80   0.001346    6.80  0.000140  (-0.011834 -0.000417  0.000028)
 97:   2994.90   0.029517  149.17  0.003076  (-0.000089  0.055458  0.000037)
 98:   3003.76   0.057724  291.72  0.005997  ( 0.077441 -0.000019 -0.000033)
 99:   3004.83   0.000586    2.96  0.000061  ( 0.000220  0.007792 -0.000197)
100:   3061.44   0.000186    0.94  0.000019  ( 0.000031  0.000035 -0.004356)
101:   3061.46   0.008223   41.55  0.000838  (-0.000165  0.000085  0.028951)
102:   3065.72   0.000452    2.28  0.000046  ( 0.000146 -0.000119 -0.006780)
103:   3065.74   0.015158   76.60  0.001543  ( 0.000252 -0.000084  0.039279)
104:   3153.65   0.000160    0.81  0.000016  ( 0.003960  0.000365  0.000048)
105:   3153.66   0.000422    2.13  0.000042  ( 0.000236 -0.006461 -0.000003)
106:   3163.82   0.009282   46.91  0.000916  ( 0.030258 -0.000188  0.000133)
107:   3163.87   0.001489    7.52  0.000147  ( 0.000475  0.012108  0.000011)
108:   3216.24   0.000707    3.57  0.000069  ( 0.008220 -0.001021  0.000030)
109:   3216.44   0.000769    3.89  0.000075  ( 0.000974  0.008582  0.000006)
110:   3220.98   0.001117    5.65  0.000108  ( 0.010078 -0.002590  0.000036)
111:   3221.06   0.000770    3.89  0.000075  ( 0.003271  0.007994  0.000014)
112:   3239.28   0.003805   19.23  0.000367  ( 0.019146 -0.000003  0.000064)
113:   3239.42   0.000730    3.69  0.000070  (-0.000005 -0.008384 -0.000001)

--------------------------
THERMOCHEMISTRY AT 298.15K
--------------------------

Temperature         ...   298.15 K
Pressure            ...     1.00 atm
Total Mass          ...   284.40 AMU
Quasi RRHO          ...     True
Cut-Off Frequency   ...     1.00 cm^-1

Throughout the following assumptions are being made:
  (1) The electronic state is orbitally nondegenerate
      but the spin degeneracy is treated
  (2) There are no thermally accessible electronically excited states
  (3) Hindered rotations indicated by low frequency modes are not
      treated as such but are treated as vibrations and this may
      cause some error
  (4) All equations used are the standard statistical mechanics
      equations for an ideal gas
  (5) All vibrations are strictly harmonic

freq.      25.19  E(vib)   ...       0.56
freq.      49.70  E(vib)   ...       0.52
freq.      55.43  E(vib)   ...       0.52
freq.      60.47  E(vib)   ...       0.51
freq.      67.44  E(vib)   ...       0.50
freq.      87.20  E(vib)   ...       0.48
freq.     106.99  E(vib)   ...       0.45
freq.     141.90  E(vib)   ...       0.41
freq.     152.27  E(vib)   ...       0.40
freq.     168.74  E(vib)   ...       0.38
freq.     190.75  E(vib)   ...       0.36
freq.     221.12  E(vib)   ...       0.33
freq.     234.82  E(vib)   ...       0.32
freq.     243.57  E(vib)   ...       0.31
freq.     251.86  E(vib)   ...       0.30
freq.     271.58  E(vib)   ...       0.29
freq.     282.85  E(vib)   ...       0.28
freq.     356.62  E(vib)   ...       0.22
freq.     368.79  E(vib)   ...       0.21
freq.     394.74  E(vib)   ...       0.20
freq.     440.99  E(vib)   ...       0.17
freq.     447.03  E(vib)   ...       0.17
freq.     454.36  E(vib)   ...       0.16
freq.     460.61  E(vib)   ...       0.16
freq.     466.52  E(vib)   ...       0.16
freq.     495.16  E(vib)   ...       0.14
freq.     508.03  E(vib)   ...       0.14
freq.     528.46  E(vib)   ...       0.13
freq.     562.76  E(vib)   ...       0.11
freq.     614.15  E(vib)   ...       0.10
freq.     616.30  E(vib)   ...       0.09
freq.     619.76  E(vib)   ...       0.09
freq.     695.15  E(vib)   ...       0.07
freq.     695.41  E(vib)   ...       0.07
freq.     753.69  E(vib)   ...       0.06
freq.     769.33  E(vib)   ...       0.06
freq.     792.24  E(vib)   ...       0.05
freq.     824.14  E(vib)   ...       0.05
freq.     833.03  E(vib)   ...       0.04
freq.     834.04  E(vib)   ...       0.04
freq.     856.51  E(vib)   ...       0.04
freq.     859.79  E(vib)   ...       0.04
freq.     890.24  E(vib)   ...       0.04
freq.     928.53  E(vib)   ...       0.03
freq.     982.17  E(vib)   ...       0.02
freq.     982.18  E(vib)   ...       0.02
freq.    1010.01  E(vib)   ...       0.02
freq.    1010.13  E(vib)   ...       0.02
freq.    1077.66  E(vib)   ...       0.02
freq.    1092.54  E(vib)   ...       0.02
freq.    1092.96  E(vib)   ...       0.02
freq.    1101.88  E(vib)   ...       0.02
freq.    1144.80  E(vib)   ...       0.01
freq.    1144.80  E(vib)   ...       0.01
freq.    1149.99  E(vib)   ...       0.01
freq.    1150.00  E(vib)   ...       0.01
freq.    1157.53  E(vib)   ...       0.01
freq.    1162.85  E(vib)   ...       0.01
freq.    1206.67  E(vib)   ...       0.01
freq.    1209.43  E(vib)   ...       0.01
freq.    1275.78  E(vib)   ...       0.01
freq.    1292.94  E(vib)   ...       0.01
freq.    1302.95  E(vib)   ...       0.01
freq.    1318.15  E(vib)   ...       0.01
freq.    1327.60  E(vib)   ...       0.01
freq.    1376.66  E(vib)   ...       0.01
freq.    1403.06  E(vib)   ...       0.00
freq.    1403.19  E(vib)   ...       0.00
freq.    1414.49  E(vib)   ...       0.00
freq.    1420.66  E(vib)   ...       0.00
freq.    1438.15  E(vib)   ...       0.00
freq.    1438.62  E(vib)   ...       0.00
freq.    1464.77  E(vib)   ...       0.00
freq.    1464.78  E(vib)   ...       0.00
freq.    1467.96  E(vib)   ...       0.00
freq.    1473.71  E(vib)   ...       0.00
freq.    1473.72  E(vib)   ...       0.00
freq.    1481.01  E(vib)   ...       0.00
freq.    1486.20  E(vib)   ...       0.00
freq.    1491.02  E(vib)   ...       0.00
freq.    1509.82  E(vib)   ...       0.00
freq.    1516.38  E(vib)   ...       0.00
freq.    1519.11  E(vib)   ...       0.00
freq.    1524.05  E(vib)   ...       0.00
freq.    1540.37  E(vib)   ...       0.00
freq.    1566.96  E(vib)   ...       0.00
freq.    1584.30  E(vib)   ...       0.00
freq.    1605.93  E(vib)   ...       0.00
freq.    1677.35  E(vib)   ...       0.00
freq.    1699.21  E(vib)   ...       0.00
freq.    2994.80  E(vib)   ...       0.00
freq.    2994.90  E(vib)   ...       0.00
freq.    3003.76  E(vib)   ...       0.00
freq.    3004.83  E(vib)   ...       0.00
freq.    3061.44  E(vib)   ...       0.00
freq.    3061.46  E(vib)   ...       0.00
freq.    3065.72  E(vib)   ...       0.00
freq.    3065.74  E(vib)   ...       0.00
freq.    3153.65  E(vib)   ...       0.00
freq.    3153.66  E(vib)   ...       0.00
freq.    3163.82  E(vib)   ...       0.00
freq.    3163.87  E(vib)   ...       0.00
freq.    3216.24  E(vib)   ...       0.00
freq.    3216.44  E(vib)   ...       0.00
freq.    3220.98  E(vib)   ...       0.00
freq.    3221.06  E(vib)   ...       0.00
freq.    3239.28  E(vib)   ...       0.00
freq.    3239.42  E(vib)   ...       0.00

------------
INNER ENERGY
------------

The inner energy is: U= E(el) + E(ZPE) + E(vib) + E(rot) + E(trans)
    E(el)   - is the total energy from the electronic structure calculation
              = E(kin-el) + E(nuc-el) + E(el-el) + E(nuc-nuc)
    E(ZPE)  - the the zero temperature vibrational energy from the frequency calculation
    E(vib)  - the the finite temperature correction to E(ZPE) due to population
              of excited vibrational states
    E(rot)  - is the rotational thermal energy
    E(trans)- is the translational thermal energy

Summary of contributions to the inner energy U:
Electronic energy                ...  -1181.22908233 Eh
Zero point energy                ...      0.31337077 Eh     196.64 kcal/mol
Thermal vibrational correction   ...      0.01616061 Eh      10.14 kcal/mol
Thermal rotational correction    ...      0.00141627 Eh       0.89 kcal/mol
Thermal translational correction ...      0.00141627 Eh       0.89 kcal/mol
-----------------------------------------------------------------------
Total thermal energy                  -1180.89671840 Eh

Summary of corrections to the electronic energy:
(perhaps to be used in another calculation)
Total thermal correction                  0.01899316 Eh      11.92 kcal/mol
Non-thermal (ZPE) correction              0.31337077 Eh     196.64 kcal/mol
-----------------------------------------------------------------------
Total correction                          0.33236393 Eh     208.56 kcal/mol

--------

Rotational constants in cm-1:     0.035055     0.004401     0.003922

                             ****ORCA TERMINATED NORMALLY****
TOTAL RUN TIME: 0 days 0 hours 52 minutes 5 seconds 153 msec
