                         Program Version 6.0.0  -   RELEASE  -
|  1> !PBE0 aug-cc-pVTZ d3 TightSCF SlowConv RIJCOSX defgrid2
|  2>
|  3> %pal
|  4> nprocs 4
|  5> end
|  6>
|  7> %scf
|  8> MaxIter 1500
|  9> end
| 10>
| 11> %maxcore 3000
| 12>
| 13> !CPCM
| 14> %cpcm smd true
| 15> SMDsolvent "MeCN"
| 16> surfacetype gepol_ses
| 17> rsolv 2.19
| 18> end
| 19>
| 20> * xyz 1 1
| 21> S          -0.00010944424839      1.35688622383581     -0.00045588940143
| 22> C          -1.36031372365063      0.28664543166242     -0.00546340006884
| 23> C          -2.62476671337193      0.84705677005335     -0.00971453464717
| 24> C          -3.78353785154568      0.02886102280580     -0.01423429397565
| 25> C          -3.60107018284620     -1.39624179093014     -0.01297231605589
| 26> C          -2.35199681392559     -1.94146658195771     -0.00876136479511
| 27> H          -2.20685076914384     -3.02424367637830     -0.00793305758699
| 28> C          -1.17128315978886     -1.13818915246922     -0.00497020504615
| 29> N          -0.00001727096531     -1.76076243632930     -0.00102819010967
| 30> C           1.17121135470124     -1.13812134734186      0.00317013049378
| 31> C           2.35197256200709     -1.94133049036071      0.00663254829317
| 32> C           3.60101296929016     -1.39603417388084      0.01111542619478
| 33> C           3.78339829568492      0.02907907789014      0.01307239629264
| 34> C           2.62457944996628      0.84720769458296      0.00871634184597
| 35> C           1.36015864778127      0.28672353397519      0.00420556171077
| 36> H           2.71641587399496      1.93353835850929      0.00870793171486
| 37> N           5.01788004531514      0.56609746843354      0.01833544940540
| 38> C           5.18814133491822      2.00584377316990      0.01634403450098
| 39> H           4.74542942133653      2.46193420678108     -0.88734870267485
| 40> H           4.72786575445769      2.46596005134639      0.90894953027437
| 41> H           6.25942535209398      2.24475285672826      0.02662709311567
| 42> C           6.19613286716415     -0.28271908536379      0.01876057872020
| 43> H           7.09315770451857      0.34984666853403      0.03069035539786
| 44> H           6.22593666634906     -0.93099154946415      0.91190332484387
| 45> H           6.23822191663831     -0.91632293624570     -0.88458991452958
| 46> H           4.46615171425756     -2.05841324252657      0.01286181646995
| 47> H           2.20688865714732     -3.02411577980646      0.00525686441104
| 48> H          -4.46616949026249     -2.05867393830664     -0.01518022916305
| 49> N          -5.01805188093167      0.56580837981430     -0.01910492853996
| 50> C          -6.19625511800718     -0.28307615883811     -0.01957513903852
| 51> H          -6.23708281763836     -0.91821943273873      0.88272679402223
| 52> H          -6.22732906825129     -0.92976319747341     -0.91384668889601
| 53> H          -7.09331253060909      0.34948868396873     -0.02891629923048
| 54> C          -5.18838315405153      2.00554867169595     -0.01756056694950
| 55> H          -4.74545392382641      2.46196127570139      0.88586029063703
| 56> H          -4.72835954265605      2.46538730377880     -0.91044348638837
| 57> H          -6.25968060226678      2.24440376590571     -0.02761767922995
| 58> H          -2.71666652963520      1.93338075123861     -0.00930728201738
| 59> *
| 60>
| 61>                          ****END OF INPUT****

CARTESIAN COORDINATES (ANGSTROEM)
---------------------------------
  S     -0.000109    1.356886   -0.000456
  C     -1.360314    0.286645   -0.005463
  C     -2.624767    0.847057   -0.009715
  C     -3.783538    0.028861   -0.014234
  C     -3.601070   -1.396242   -0.012972
  C     -2.351997   -1.941467   -0.008761
  H     -2.206851   -3.024244   -0.007933
  C     -1.171283   -1.138189   -0.004970
  N     -0.000017   -1.760762   -0.001028
  C      1.171211   -1.138121    0.003170
  C      2.351973   -1.941330    0.006633
  C      3.601013   -1.396034    0.011115
  C      3.783398    0.029079    0.013072
  C      2.624579    0.847208    0.008716
  C      1.360159    0.286724    0.004206
  H      2.716416    1.933538    0.008708
  N      5.017880    0.566097    0.018335
  C      5.188141    2.005844    0.016344
  H      4.745429    2.461934   -0.887349
  H      4.727866    2.465960    0.908950
  H      6.259425    2.244753    0.026627
  C      6.196133   -0.282719    0.018761
  H      7.093158    0.349847    0.030690
  H      6.225937   -0.930992    0.911903
  H      6.238222   -0.916323   -0.884590
  H      4.466152   -2.058413    0.012862
  H      2.206889   -3.024116    0.005257
  H     -4.466169   -2.058674   -0.015180
  N     -5.018052    0.565808   -0.019105
  C     -6.196255   -0.283076   -0.019575
  H     -6.237083   -0.918219    0.882727
  H     -6.227329   -0.929763   -0.913847
  H     -7.093313    0.349489   -0.028916
  C     -5.188383    2.005549   -0.017561
  H     -4.745454    2.461961    0.885860
  H     -4.728360    2.465387   -0.910443
  H     -6.259681    2.244404   -0.027618
  H     -2.716667    1.933381   -0.009307

 Total Charge           Charge          ....    1
 Multiplicity           Mult            ....    1
 Number of Electrons    NEL             ....  150
 Basis Dimension        Dim             .... 1338

ORBITAL ENERGIES
----------------

  NO   OCC          E(Eh)            E(eV)
   0   2.0000     -89.111405     -2424.8446
   1   2.0000     -14.449413      -393.1885
   2   2.0000     -14.449410      -393.1884
   3   2.0000     -14.424829      -392.5196
   4   2.0000     -10.308618      -280.5118
   5   2.0000     -10.308599      -280.5112
   6   2.0000     -10.306247      -280.4472
   7   2.0000     -10.306209      -280.4462
   8   2.0000     -10.293816      -280.1090
   9   2.0000     -10.293811      -280.1088
  10   2.0000     -10.258299      -279.1425
  11   2.0000     -10.258296      -279.1424
  12   2.0000     -10.258248      -279.1411
  13   2.0000     -10.258218      -279.1403
  14   2.0000     -10.256314      -279.0885
  15   2.0000     -10.256297      -279.0880
  16   2.0000     -10.252737      -278.9911
  17   2.0000     -10.252656      -278.9890
  18   2.0000     -10.251399      -278.9547
  19   2.0000     -10.251356      -278.9536
  20   2.0000      -8.069006      -219.5688
  21   2.0000      -6.005783      -163.4257
  22   2.0000      -6.002150      -163.3268
  23   2.0000      -5.999792      -163.2626
  24   2.0000      -1.015614       -27.6363
  25   2.0000      -1.013452       -27.5774
  26   2.0000      -1.007297       -27.4099
  27   2.0000      -0.906657       -24.6714
  28   2.0000      -0.903197       -24.5772
  29   2.0000      -0.857150       -23.3242
  30   2.0000      -0.812249       -22.1024
  31   2.0000      -0.803173       -21.8555
  32   2.0000      -0.781977       -21.2787
  33   2.0000      -0.758335       -20.6353
  34   2.0000      -0.756476       -20.5848
  35   2.0000      -0.731575       -19.9072
  36   2.0000      -0.718735       -19.5578
  37   2.0000      -0.674503       -18.3541
  38   2.0000      -0.649744       -17.6804
  39   2.0000      -0.648442       -17.6450
  40   2.0000      -0.626003       -17.0344
  41   2.0000      -0.587246       -15.9798
  42   2.0000      -0.581125       -15.8132
  43   2.0000      -0.548854       -14.9351
  44   2.0000      -0.542460       -14.7611
  45   2.0000      -0.540562       -14.7094
  46   2.0000      -0.515017       -14.0143
  47   2.0000      -0.497877       -13.5479
  48   2.0000      -0.496787       -13.5182
  49   2.0000      -0.485574       -13.2131
  50   2.0000      -0.472137       -12.8475
  51   2.0000      -0.470836       -12.8121
  52   2.0000      -0.466898       -12.7050
  53   2.0000      -0.463929       -12.6242
  54   2.0000      -0.452419       -12.3109
  55   2.0000      -0.449874       -12.2417
  56   2.0000      -0.424620       -11.5545
  57   2.0000      -0.424107       -11.5405
  58   2.0000      -0.422204       -11.4888
  59   2.0000      -0.422198       -11.4886
  60   2.0000      -0.413294       -11.2463
  61   2.0000      -0.413024       -11.2390
  62   2.0000      -0.412246       -11.2178
  63   2.0000      -0.395187       -10.7536
  64   2.0000      -0.388779       -10.5792
  65   2.0000      -0.381505       -10.3813
  66   2.0000      -0.377400       -10.2696
  67   2.0000      -0.367035        -9.9875
  68   2.0000      -0.366339        -9.9686
  69   2.0000      -0.328713        -8.9447
  70   2.0000      -0.305981        -8.3262
  71   2.0000      -0.301908        -8.2153
  72   2.0000      -0.283481        -7.7139
  73   2.0000      -0.245650        -6.6845
  74   2.0000      -0.221773        -6.0348
  75   0.0000      -0.124549        -3.3892
  76   0.0000      -0.043863        -1.1936
  77   0.0000      -0.030598        -0.8326
  78   0.0000      -0.018555        -0.5049
  79   0.0000      -0.005105        -0.1389

MULLIKEN ATOMIC CHARGES
-----------------------
   0 S :    0.105330
   1 C :    0.704567
   2 C :   -0.890238
   3 C :    1.139885
   4 C :   -0.084875
   5 C :   -1.026515
   6 H :    0.467322
   7 C :    0.448299
   8 N :   -1.001140
   9 C :    0.447593
  10 C :   -1.001144
  11 C :   -0.046391
  12 C :    0.997750
  13 C :   -0.908937
  14 C :    0.767084
  15 H :    0.107394
  16 N :   -0.228139
  17 C :   -0.957325
  18 H :    0.335654
  19 H :    0.337447
  20 H :    0.257782
  21 C :   -0.937584
  22 H :    0.294711
  23 H :    0.296369
  24 H :    0.298929
  25 H :    0.429091
  26 H :    0.474130
  27 H :    0.366795
  28 N :   -0.240243
  29 C :   -0.909652
  30 H :    0.297602
  31 H :    0.295839
  32 H :    0.294603
  33 C :   -0.962675
  34 H :    0.336984
  35 H :    0.337350
  36 H :    0.257808
  37 H :    0.098540
Sum of atomic charges:    1.0000000

LOEWDIN ATOMIC CHARGES
----------------------
   0 S :    1.415015
   1 C :   -0.455311
   2 C :    0.163996
   3 C :   -0.194545
   4 C :    0.256271
   5 C :    0.227736
   6 H :   -0.152727
   7 C :   -0.347070
   8 N :    0.404215
   9 C :   -0.347186
  10 C :    0.227700
  11 C :    0.256282
  12 C :   -0.194579
  13 C :    0.163749
  14 C :   -0.455624
  15 H :   -0.197993
  16 N :    0.267228
  17 C :    0.514858
  18 H :   -0.130091
  19 H :   -0.131020
  20 H :   -0.153069
  21 C :    0.516242
  22 H :   -0.154099
  23 H :   -0.132063
  24 H :   -0.130820
  25 H :   -0.176886
  26 H :   -0.152704
  27 H :   -0.176913
  28 N :    0.267237
  29 C :    0.516234
  30 H :   -0.130932
  31 H :   -0.131913
  32 H :   -0.154112
  33 C :    0.514884
  34 H :   -0.130122
  35 H :   -0.131005
  36 H :   -0.153044
  37 H :   -0.197821

  Mayer bond orders larger than 0.100000
B(  0-S ,  1-C ) :   0.3719 B(  0-S ,  2-C ) :   0.1091 B(  0-S ,  7-C ) :   0.2120
B(  0-S ,  8-N ) :  -0.1891 B(  0-S ,  9-C ) :   0.2072 B(  0-S , 13-C ) :   0.1130
B(  0-S , 14-C ) :   0.3614 B(  1-C ,  2-C ) :   0.6001 B(  1-C ,  3-C ) :  -0.2371
B(  1-C ,  4-C ) :  -0.2288 B(  1-C ,  7-C ) :   0.8419 B(  1-C , 13-C ) :   0.1851
B(  1-C , 14-C ) :  -0.5595 B(  1-C , 28-N ) :   0.3035 B(  1-C , 33-C ) :   0.1377
B(  1-C , 37-H ) :   0.1077 B(  2-C ,  3-C ) :   0.3740 B(  2-C ,  4-C ) :  -0.1827
B(  2-C ,  5-C ) :  -0.1465 B(  2-C ,  7-C ) :   0.4305 B(  2-C ,  9-C ) :  -0.3478
B(  2-C , 10-C ) :   0.1113 B(  2-C , 11-C ) :  -0.1714 B(  2-C , 13-C ) :   0.1587
B(  2-C , 14-C ) :   0.2256 B(  2-C , 16-N ) :   0.1762 B(  2-C , 25-H ) :  -0.2961
B(  2-C , 26-H ) :   0.1605 B(  2-C , 27-H ) :   0.1361 B(  2-C , 28-N ) :  -0.4918
B(  2-C , 29-C ) :   0.1414 B(  2-C , 33-C ) :  -0.2173 B(  2-C , 37-H ) :   1.1330
B(  3-C ,  4-C ) :   0.5770 B(  3-C ,  5-C ) :  -0.2310 B(  3-C , 11-C ) :   0.1476
B(  3-C , 14-C ) :  -0.1288 B(  3-C , 25-H ) :   0.2936 B(  3-C , 27-H ) :  -0.1111
B(  3-C , 28-N ) :   0.2268 B(  3-C , 29-C ) :  -0.1952 B(  3-C , 33-C ) :  -0.2286
B(  4-C ,  5-C ) :   1.3409 B(  4-C ,  6-H ) :   0.1029 B(  4-C ,  7-C ) :   0.4216
B(  4-C ,  8-N ) :   0.1118 B(  4-C , 11-C ) :   0.2422 B(  4-C , 13-C ) :  -0.1157
B(  4-C , 25-H ) :   0.1623 B(  4-C , 26-H ) :  -0.1466 B(  4-C , 27-H ) :   0.7744
B(  4-C , 28-N ) :  -0.5085 B(  4-C , 29-C ) :  -0.1425 B(  5-C ,  6-H ) :   0.4396
B(  5-C ,  7-C ) :  -0.1825 B(  5-C ,  8-N ) :   0.3771 B(  5-C ,  9-C ) :   0.2794
B(  5-C , 12-C ) :   0.2024 B(  5-C , 14-C ) :   0.1252 B(  5-C , 16-N ) :  -0.1171
B(  5-C , 26-H ) :  -0.1029 B(  6-H ,  8-N ) :   0.1568 B(  6-H ,  9-C ) :  -0.2120
B(  6-H , 11-C ) :  -0.2109 B(  6-H , 12-C ) :   0.1608 B(  6-H , 13-C ) :   0.1620
B(  6-H , 14-C ) :   0.1310 B(  6-H , 25-H ) :  -0.1410 B(  7-C ,  8-N ) :   0.3912
B(  7-C ,  9-C ) :   0.6833 B(  7-C , 10-C ) :   0.4516 B(  7-C , 12-C ) :  -0.1613
B(  7-C , 13-C ) :  -0.2850 B(  7-C , 26-H ) :  -0.1166 B(  7-C , 27-H ) :   0.1032
B(  7-C , 28-N ) :  -0.1425 B(  8-N ,  9-C ) :   0.3124 B(  8-N , 10-C ) :   0.4004
B(  8-N , 11-C ) :   0.1249 B(  8-N , 14-C ) :  -0.1189 B(  8-N , 26-H ) :   0.1824
B(  9-C , 10-C ) :  -0.1726 B(  9-C , 11-C ) :   0.4220 B(  9-C , 13-C ) :   0.4166
B(  9-C , 14-C ) :   0.8291 B(  9-C , 16-N ) :  -0.1360 B(  9-C , 27-H ) :   0.2130
B( 10-C , 11-C ) :   1.3027 B( 10-C , 12-C ) :  -0.1667 B( 10-C , 13-C ) :  -0.2005
B( 10-C , 26-H ) :   0.4420 B( 10-C , 28-N ) :  -0.1181 B( 11-C , 12-C ) :   0.7289
B( 11-C , 13-C ) :  -0.1844 B( 11-C , 14-C ) :  -0.2502 B( 11-C , 16-N ) :  -0.5528
B( 11-C , 21-C ) :  -0.1781 B( 11-C , 25-H ) :   0.7341 B( 11-C , 26-H ) :   0.1065
B( 11-C , 27-H ) :   0.2487 B( 11-C , 28-N ) :  -0.1323 B( 12-C , 13-C ) :   0.4325
B( 12-C , 14-C ) :  -0.2221 B( 12-C , 16-N ) :   0.2379 B( 12-C , 17-C ) :  -0.1357
B( 12-C , 21-C ) :  -0.1858 B( 12-C , 27-H ) :  -0.1486 B( 13-C , 14-C ) :   0.6226
B( 13-C , 15-H ) :   1.1297 B( 13-C , 16-N ) :  -0.4835 B( 13-C , 17-C ) :  -0.2853
B( 13-C , 21-C ) :   0.2068 B( 13-C , 25-H ) :   0.1108 B( 13-C , 27-H ) :  -0.3658
B( 13-C , 28-N ) :   0.2378 B( 14-C , 16-N ) :   0.2966 B( 14-C , 17-C ) :   0.1160
B( 14-C , 27-H ) :  -0.2137 B( 14-C , 28-N ) :   0.1105 B( 16-N , 17-C ) :   1.2882
B( 16-N , 21-C ) :   1.2942 B( 17-C , 18-H ) :   0.8532 B( 17-C , 19-H ) :   0.8507
B( 17-C , 20-H ) :   0.9566 B( 21-C , 22-H ) :   0.8732 B( 21-C , 23-H ) :   0.9115
B( 21-C , 24-H ) :   0.9140 B( 21-C , 25-H ) :  -0.1024 B( 25-H , 28-N ) :  -0.1596
B( 28-N , 29-C ) :   1.2808 B( 28-N , 33-C ) :   1.3010 B( 29-C , 30-H ) :   0.9124
B( 29-C , 31-H ) :   0.9079 B( 29-C , 32-H ) :   0.8724 B( 33-C , 34-H ) :   0.8524
B( 33-C , 35-H ) :   0.8509 B( 33-C , 36-H ) :   0.9512

Dispersion correction           -0.044662319
FINAL SINGLE POINT ENERGY     -1182.109859395874

DIPOLE MOMENT
-------------

Method             : SCF
Type of density    : Electron Density
Multiplicity       :   1
Irrep              :   0
Energy             : -1182.0651970765059104 Eh
Relativity type    :
Basis              : AO
                                X                 Y                 Z
Electronic contribution:     -0.003484700      -3.326119779       0.000100461
Nuclear contribution   :     -0.000160838       4.600849614       0.000182721
                        -----------------------------------------
Total Dipole Moment    :     -0.003645538       1.274729835       0.000283182
                        -----------------------------------------
Magnitude (a.u.)       :      1.274735080
Magnitude (Debye)      :      3.240119076

Rotational constants in cm-1:             0.035338             0.004431             0.003949
Rotational constants in MHz :          1059.419573           132.841416           118.400139

                             ****ORCA TERMINATED NORMALLY****
TOTAL RUN TIME: 0 days 0 hours 28 minutes 34 seconds 907 msec
