                         Program Version 6.0.0  -   RELEASE  -
|  1> !PBE0 opt def2-SV(p) d3 TightSCF SlowConv RIJCOSX defgrid2
|  2>
|  3> %pal
|  4> nprocs 8
|  5> end
|  6>
|  7> %scf
|  8> MaxIter 1500
|  9> end
| 10>
| 11> %maxcore 3500
| 12>
| 13> !CPCM
| 14> %cpcm smd true
| 15> SMDsolvent "MeCN"
| 16> surfacetype gepol_ses
| 17> rsolv 2.19
| 18> end
| 19>
| 20> * xyz 1 2
| 21> C          -0.69806914174773     -1.08130758385803      0.00000478073461
| 22> C          -1.29995911913199      0.21220975823502      0.00000712364871
| 23> C          -0.48713495449795      1.39007645246692     -0.00001560397811
| 24> C           0.87407248196079      1.28097563070640     -0.00003015609287
| 25> C           1.48961473063931     -0.00988444370075     -0.00003464832734
| 26> C           0.66713129411178     -1.18242862965134     -0.00001675195059
| 27> H           1.14787115207094     -2.16374838611022     -0.00001833432844
| 28> C           2.87923367476782     -0.13303827989769     -0.00003947759998
| 29> C           4.09817372516796     -0.24492334399421     -0.00000244744274
| 30> H           5.17420938419188     -0.34031758843355     -0.00000256865577
| 31> H           1.50568477881681      2.17231925078041     -0.00004562485067
| 32> H          -0.99220253079888      2.35905562684180     -0.00001378344560
| 33> O          -2.58101948918323      0.42008257874155      0.00003691245038
| 34> C          -3.53711041258472     -0.64087278516494      0.00007811011347
| 35> H          -4.51842922650600     -0.15013878054896      0.00011237958636
| 36> H          -3.42139067434806     -1.25399713854605     -0.90847216906212
| 37> H          -3.42131652654994     -1.25398175148381      0.90862972609483
| 38> H          -1.31361454637877     -1.98259848638256      0.00002453310588
| 39> *
| 40>
| 41>                          ****END OF INPUT****
 Total Charge           Charge          ....    1
 Multiplicity           Mult            ....    2
 Number of Electrons    NEL             ....   69
Dispersion correction           -0.015942827
FINAL SINGLE POINT ENERGY      -421.908511968006
Dispersion correction             ... done (  0.1 sec)
Dispersion correction           -0.015967001
FINAL SINGLE POINT ENERGY      -421.908567826084
Dispersion correction             ... done (  0.1 sec)
Dispersion correction           -0.015970872
FINAL SINGLE POINT ENERGY      -421.908571459884
Dispersion correction             ... done (  0.1 sec)
                    ***********************HURRAY********************

CARTESIAN COORDINATES (ANGSTROEM)
---------------------------------
  C     -0.706772   -1.074134   -0.002136
  C     -1.301088    0.222098   -0.000410
  C     -0.486774    1.398324   -0.000698
  C      0.873047    1.283992   -0.000723
  C      1.479403   -0.009501   -0.000838
  C      0.656433   -1.179627   -0.002270
  H      1.131604   -2.162708   -0.002918
  C      2.871903   -0.137029    0.000553
  C      4.088965   -0.251407    0.001861
  H      5.165187   -0.349397    0.002689
  H      1.507169    2.172568   -0.000966
  H     -0.984561    2.370445   -0.000019
  O     -2.581856    0.428742    0.001461
  C     -3.521823   -0.648871    0.001581
  H     -4.510981   -0.174212   -0.000746
  H     -3.392246   -1.261336   -0.904310
  H     -3.395415   -1.258844    0.909781
  H     -1.326448   -1.971622   -0.001689

 Multiplicity           Mult            ....    2
 Number of Electrons    NEL             ....   69
 Basis Dimension        Dim             ....  156

ORBITAL ENERGIES
----------------
                 SPIN UP ORBITALS
  NO   OCC          E(Eh)            E(eV)
   0   1.0000     -19.323970      -525.8320
   1   1.0000     -10.375507      -282.3319
   2   1.0000     -10.328676      -281.0576
   3   1.0000     -10.298407      -280.2339
   4   1.0000     -10.292568      -280.0750
   5   1.0000     -10.291018      -280.0328
   6   1.0000     -10.287440      -279.9355
   7   1.0000     -10.285602      -279.8855
   8   1.0000     -10.285361      -279.8789
   9   1.0000     -10.285265      -279.8763
  10   1.0000      -1.173653       -31.9367
  11   1.0000      -0.936167       -25.4744
  12   1.0000      -0.855875       -23.2895
  13   1.0000      -0.823595       -22.4111
  14   1.0000      -0.802027       -21.8243
  15   1.0000      -0.760283       -20.6883
  16   1.0000      -0.683308       -18.5937
  17   1.0000      -0.662401       -18.0249
  18   1.0000      -0.606938       -16.5156
  19   1.0000      -0.589099       -16.0302
  20   1.0000      -0.559781       -15.2324
  21   1.0000      -0.551628       -15.0105
  22   1.0000      -0.544380       -14.8133
  23   1.0000      -0.494986       -13.4693
  24   1.0000      -0.485194       -13.2028
  25   1.0000      -0.472083       -12.8460
  26   1.0000      -0.453662       -12.3448
  27   1.0000      -0.452373       -12.3097
  28   1.0000      -0.418705       -11.3935
  29   1.0000      -0.413459       -11.2508
  30   1.0000      -0.382450       -10.4070
  31   1.0000      -0.356039        -9.6883
  32   1.0000      -0.334552        -9.1036
  33   1.0000      -0.323019        -8.7898
  34   1.0000      -0.283725        -7.7206
  35   0.0000      -0.081420        -2.2155
  36   0.0000      -0.046946        -1.2775
  37   0.0000       0.011264         0.3065
  38   0.0000       0.046161         1.2561
  39   0.0000       0.069119         1.8808

                 SPIN DOWN ORBITALS
  NO   OCC          E(Eh)            E(eV)
   0   1.0000     -19.318332      -525.6785
   1   1.0000     -10.373133      -282.2673
   2   1.0000     -10.323136      -280.9068
   3   1.0000     -10.298625      -280.2398
   4   1.0000     -10.293038      -280.0878
   5   1.0000     -10.288560      -279.9659
   6   1.0000     -10.287930      -279.9488
   7   1.0000     -10.284487      -279.8551
   8   1.0000     -10.284154      -279.8461
   9   1.0000     -10.283364      -279.8246
  10   1.0000      -1.163483       -31.6600
  11   1.0000      -0.928977       -25.2787
  12   1.0000      -0.847689       -23.0668
  13   1.0000      -0.821398       -22.3514
  14   1.0000      -0.795588       -21.6490
  15   1.0000      -0.751207       -20.4414
  16   1.0000      -0.678781       -18.4706
  17   1.0000      -0.658448       -17.9173
  18   1.0000      -0.604070       -16.4376
  19   1.0000      -0.585155       -15.9229
  20   1.0000      -0.557424       -15.1683
  21   1.0000      -0.547477       -14.8976
  22   1.0000      -0.523705       -14.2507
  23   1.0000      -0.492822       -13.4104
  24   1.0000      -0.484066       -13.1721
  25   1.0000      -0.470011       -12.7897
  26   1.0000      -0.452532       -12.3140
  27   1.0000      -0.435887       -11.8611
  28   1.0000      -0.417222       -11.3532
  29   1.0000      -0.393971       -10.7205
  30   1.0000      -0.379262       -10.3202
  31   1.0000      -0.330920        -9.0048
  32   1.0000      -0.327964        -8.9244
  33   1.0000      -0.318061        -8.6549
  34   0.0000      -0.197162        -5.3651
  35   0.0000      -0.054335        -1.4785
  36   0.0000      -0.034996        -0.9523
  37   0.0000       0.013444         0.3658
  38   0.0000       0.065198         1.7741

MULLIKEN ATOMIC CHARGES AND SPIN POPULATIONS
--------------------------------------------
   0 C :   -0.152215    0.099053
   1 C :    0.288727    0.156204
   2 C :   -0.086980    0.135623
   3 C :   -0.045052   -0.093636
   4 C :    0.006695    0.384055
   5 C :   -0.032775   -0.045326
   6 H :    0.170271    0.000659
   7 C :    0.354831   -0.167731
   8 C :   -0.393693    0.382020
   9 H :    0.208120   -0.019156
  10 H :    0.168230    0.002738
  11 H :    0.169892   -0.007597
  12 O :   -0.233407    0.168302
  13 C :   -0.199700   -0.013642
  14 H :    0.197665   -0.000009
  15 H :    0.199788    0.012133
  16 H :    0.199791    0.012209
  17 H :    0.179814   -0.005898
Sum of atomic charges         :    1.0000000

LOEWDIN ATOMIC CHARGES AND SPIN POPULATIONS
-------------------------------------------
   0 C :   -0.114981    0.091355
   1 C :    0.121725    0.141365
   2 C :   -0.086008    0.116977
   3 C :   -0.054239   -0.043856
   4 C :    0.020535    0.278697
   5 C :   -0.035471   -0.006800
   6 H :    0.176714    0.000075
   7 C :   -0.003808   -0.077334
   8 C :   -0.044506    0.331959
   9 H :    0.204848   -0.011288
  10 H :    0.175638    0.001156
  11 H :    0.177231   -0.004054
  12 O :    0.012554    0.172561
  13 C :   -0.190313   -0.005408
  14 H :    0.153824   -0.000035
  15 H :    0.153357    0.008856
  16 H :    0.153450    0.008919
  17 H :    0.179449   -0.003146

  Mayer bond orders larger than 0.100000
B(  0-C ,  1-C ) :   1.1519 B(  0-C ,  5-C ) :   1.5348 B(  0-C , 17-H ) :   0.9464
B(  1-C ,  2-C ) :   1.1791 B(  1-C , 12-O ) :   1.3339 B(  2-C ,  3-C ) :   1.5302
B(  2-C , 11-H ) :   0.9534 B(  3-C ,  4-C ) :   1.1831 B(  3-C , 10-H ) :   0.9569
B(  4-C ,  5-C ) :   1.1819 B(  4-C ,  7-C ) :   1.1562 B(  5-C ,  6-H ) :   0.9529
B(  7-C ,  8-C ) :   2.2181 B(  8-C ,  9-H ) :   1.0112 B( 12-O , 13-C ) :   0.8578
B( 13-C , 14-H ) :   0.9435 B( 13-C , 15-H ) :   0.9304 B( 13-C , 16-H ) :   0.9305

Dispersion correction           -0.015970532
FINAL SINGLE POINT ENERGY      -421.908573485731

DIPOLE MOMENT
-------------

Method             : SCF
Type of density    : Electron Density
Multiplicity       :   2
Irrep              :   0
Energy             :  -421.8926029532682946 Eh
Relativity type    :
Basis              : AO
                                X                 Y                 Z
Electronic contribution:      5.217078879       1.755940415      -0.002056149
Nuclear contribution   :     -5.503369743      -2.434274145       0.002399980
                        -----------------------------------------
Total Dipole Moment    :     -0.286290864      -0.678333729       0.000343831
                        -----------------------------------------
Magnitude (a.u.)       :      0.736273879
Magnitude (Debye)      :      1.871459473

Rotational constants in cm-1:             0.156834             0.023948             0.020861
Rotational constants in MHz :          4701.761636           717.937210           625.390577

                             ****ORCA TERMINATED NORMALLY****
TOTAL RUN TIME: 0 days 0 hours 5 minutes 24 seconds 820 msec
