                         Program Version 6.0.0  -   RELEASE  -
|  1> !r2SCANh freq aug-cc-pVTZ d3 TightSCF SlowConv RIJCOSX defgrid2
|  2>
|  3> %pal
|  4> nprocs 12
|  5> end
|  6>
|  7> %scf
|  8> MaxIter 1500
|  9> end
| 10>
| 11> %maxcore 5000
| 12>
| 13> !CPCM
| 14> %cpcm smd true
| 15> SMDsolvent "MeCN"
| 16> surfacetype gepol_ses
| 17> rsolv 2.19
| 18> end
| 19>
| 20> * xyz 0 1
| 21> C          -1.15392922191135     -1.23942358079015     -0.00033438279973
| 22> C          -2.50422019570297     -0.94690942098571     -0.00064911083838
| 23> C          -2.92818261244934      0.37741368929610     -0.00023003535601
| 24> C          -1.99948732100566      1.40992288762839      0.00038849392202
| 25> C          -0.64441104161141      1.12654497944964      0.00053714619069
| 26> C          -0.21592705931225     -0.20032606962232      0.00018839357834
| 27> C           1.19401383776494     -0.59981419272812      0.00043742363814
| 28> O           1.62886509375099     -1.70392219565059      0.00053711514289
| 29> Cl          2.38519254605417      0.77980830245179     -0.00048539828339
| 30> H           0.07434329528273      1.93090109524769      0.00104375439496
| 31> H          -2.33087220472178      2.43858994619377      0.00144112212744
| 32> H          -3.98560783021460      0.60379266803139     -0.00016304867746
| 33> H          -3.22817895398359     -1.74948114306850     -0.00130472640241
| 34> H          -0.81227553193987     -2.26416296545336     -0.00091204663711
| 35> *
| 36>
| 37>                          ****END OF INPUT****

CARTESIAN COORDINATES (ANGSTROEM)
---------------------------------
  C     -1.153929   -1.239424   -0.000334
  C     -2.504220   -0.946909   -0.000649
  C     -2.928183    0.377414   -0.000230
  C     -1.999487    1.409923    0.000388
  C     -0.644411    1.126545    0.000537
  C     -0.215927   -0.200326    0.000188
  C      1.194014   -0.599814    0.000437
  O      1.628865   -1.703922    0.000537
  Cl     2.385193    0.779808   -0.000485
  H      0.074343    1.930901    0.001044
  H     -2.330872    2.438590    0.001441
  H     -3.985608    0.603793   -0.000163
  H     -3.228179   -1.749481   -0.001305
  H     -0.812276   -2.264163   -0.000912

 Total Charge           Charge          ....    0
 Multiplicity           Mult            ....    1
 Number of Electrons    NEL             ....   72
 Basis Dimension        Dim             ....  533

ORBITAL ENERGIES
----------------

  NO   OCC          E(Eh)            E(eV)
   0   2.0000    -101.585519     -2764.2825
   1   2.0000     -19.147321      -521.0251
   2   2.0000     -10.310578      -280.5651
   3   2.0000     -10.194738      -277.4129
   4   2.0000     -10.179189      -276.9898
   5   2.0000     -10.178884      -276.9815
   6   2.0000     -10.175725      -276.8956
   7   2.0000     -10.170348      -276.7493
   8   2.0000     -10.170203      -276.7453
   9   2.0000      -9.496988      -258.4262
  10   2.0000      -7.215097      -196.3328
  11   2.0000      -7.208461      -196.1522
  12   2.0000      -7.207333      -196.1215
  13   2.0000      -1.101362       -29.9696
  14   2.0000      -0.883335       -24.0368
  15   2.0000      -0.841748       -22.9051
  16   2.0000      -0.777396       -21.1540
  17   2.0000      -0.763876       -20.7861
  18   2.0000      -0.653197       -17.7744
  19   2.0000      -0.617188       -16.7945
  20   2.0000      -0.565878       -15.3983
  21   2.0000      -0.522083       -14.2066
  22   2.0000      -0.483053       -13.1445
  23   2.0000      -0.471623       -12.8335
  24   2.0000      -0.447897       -12.1879
  25   2.0000      -0.440639       -11.9904
  26   2.0000      -0.439245       -11.9525
  27   2.0000      -0.425149       -11.5689
  28   2.0000      -0.378489       -10.2992
  29   2.0000      -0.359338        -9.7781
  30   2.0000      -0.344095        -9.3633
  31   2.0000      -0.322716        -8.7815
  32   2.0000      -0.319640        -8.6978
  33   2.0000      -0.291325        -7.9274
  34   2.0000      -0.274044        -7.4571
  35   2.0000      -0.268640        -7.3101
  36   0.0000      -0.094500        -2.5715
  37   0.0000      -0.035990        -0.9793
  38   0.0000      -0.002299        -0.0626
  39   0.0000       0.011480         0.3124
  40   0.0000       0.013196         0.3591

MULLIKEN ATOMIC CHARGES
-----------------------
   0 C :   -0.858684
   1 C :   -0.433662
   2 C :   -0.266082
   3 C :   -0.672655
   4 C :   -0.789596
   5 C :    1.465827
   6 C :    0.637205
   7 O :   -0.723708
   8 Cl:   -0.297814
   9 H :    0.349876
  10 H :    0.484460
  11 H :    0.481916
  12 H :    0.443364
  13 H :    0.179552
Sum of atomic charges:    0.0000000

LOEWDIN ATOMIC CHARGES
----------------------
   0 C :    0.197041
   1 C :    0.222456
   2 C :    0.220362
   3 C :    0.219512
   4 C :    0.164166
   5 C :   -0.250163
   6 C :   -1.105097
   7 O :    0.415269
   8 Cl:    0.847651
   9 H :   -0.242008
  10 H :   -0.170393
  11 H :   -0.166568
  12 H :   -0.170049
  13 H :   -0.182180

  Mayer bond orders larger than 0.100000
B(  0-C ,  1-C ) :   1.1583 B(  0-C ,  4-C ) :  -0.1050 B(  0-C ,  5-C ) :   0.3113
B(  0-C ,  6-C ) :   0.1381 B(  0-C , 13-H ) :   0.8976 B(  1-C ,  2-C ) :   1.1136
B(  1-C , 12-H ) :   0.6913 B(  2-C ,  3-C ) :   1.1840 B(  2-C ,  5-C ) :  -0.1704
B(  2-C , 11-H ) :   0.6334 B(  3-C ,  4-C ) :   1.1604 B(  3-C ,  5-C ) :  -0.1403
B(  3-C , 10-H ) :   0.6168 B(  4-C ,  5-C ) :   0.1921 B(  4-C ,  6-C ) :   0.1631
B(  4-C ,  9-H ) :   0.9941 B(  5-C ,  6-C ) :   0.6104 B(  5-C ,  7-O ) :   0.2348
B(  5-C ,  8-Cl) :   0.1633 B(  6-C ,  7-O ) :   1.0238 B(  6-C ,  8-Cl) :   0.7670
B(  7-O , 13-H ) :   0.1505 B(  8-Cl,  9-H ) :  -0.1503

Dispersion correction           -0.004982193
FINAL SINGLE POINT ENERGY      -805.110497723960

DIPOLE MOMENT
-------------

Method             : SCF
Type of density    : Electron Density
Multiplicity       :   1
Irrep              :   0
Energy             :  -805.1055155309257998 Eh
Relativity type    :
Basis              : AO
                                X                 Y                 Z
Electronic contribution:     10.718976015       0.766440194      -0.000787685
Nuclear contribution   :    -12.851521559      -0.183060059       0.000864504
                        -----------------------------------------
Total Dipole Moment    :     -2.132545544       0.583380134       0.000076819
                        -----------------------------------------
Magnitude (a.u.)       :      2.210900922
Magnitude (Debye)      :      5.619663541

VIBRATIONAL FREQUENCIES
-----------------------

Scaling factor for frequencies =  1.000000000  (already applied!)

     0:       0.00 cm**-1
     1:       0.00 cm**-1
     2:       0.00 cm**-1
     3:       0.00 cm**-1
     4:       0.00 cm**-1
     5:       0.00 cm**-1
     6:      21.67 cm**-1
     7:     145.50 cm**-1
     8:     192.17 cm**-1
     9:     316.58 cm**-1
    10:     405.86 cm**-1
    11:     413.29 cm**-1
    12:     426.64 cm**-1
    13:     506.26 cm**-1
    14:     627.95 cm**-1
    15:     667.60 cm**-1
    16:     671.94 cm**-1
    17:     692.74 cm**-1
    18:     796.53 cm**-1
    19:     861.39 cm**-1
    20:     867.38 cm**-1
    21:     971.61 cm**-1
    22:    1010.85 cm**-1
    23:    1024.66 cm**-1
    24:    1032.48 cm**-1
    25:    1053.75 cm**-1
    26:    1114.37 cm**-1
    27:    1174.18 cm**-1
    28:    1186.92 cm**-1
    29:    1227.85 cm**-1
    30:    1341.08 cm**-1
    31:    1382.61 cm**-1
    32:    1482.28 cm**-1
    33:    1521.28 cm**-1
    34:    1630.41 cm**-1
    35:    1644.90 cm**-1
    36:    1823.96 cm**-1
    37:    3198.88 cm**-1
    38:    3209.69 cm**-1
    39:    3217.48 cm**-1
    40:    3226.05 cm**-1
    41:    3237.92 cm**-1

IR SPECTRUM
-----------

 Mode   freq       eps      Int      T**2         TX        TY        TZ
       cm**-1   L/(mol*cm) km/mol    a.u.
----------------------------------------------------------------------------
  6:     21.67   0.000065    0.33  0.000941  ( 0.000044 -0.000280  0.030672)
  7:    145.50   0.000051    0.26  0.000109  (-0.000048  0.000056 -0.010453)
  8:    192.17   0.000288    1.45  0.000467  ( 0.018744  0.010773  0.000112)
  9:    316.58   0.007291   36.85  0.007187  ( 0.066956  0.051999  0.000103)
 10:    405.86   0.000001    0.00  0.000000  ( 0.000480  0.000372 -0.000163)
 11:    413.29   0.005682   28.71  0.004290  ( 0.038864  0.052722 -0.000039)
 12:    426.64   0.000152    0.77  0.000112  ( 0.000073  0.000340  0.010556)
 13:    506.26   0.002717   13.73  0.001675  (-0.026904 -0.030839 -0.000004)
 14:    627.95   0.001312    6.63  0.000652  (-0.022207 -0.012599 -0.000251)
 15:    667.60   0.010679   53.97  0.004992  ( 0.000932  0.000341  0.070645)
 16:    671.94   0.048338  244.28  0.022449  ( 0.134395  0.066234 -0.000608)
 17:    692.74   0.016182   81.78  0.007290  (-0.000046 -0.000047 -0.085380)
 18:    796.53   0.008295   41.92  0.003250  ( 0.000244 -0.000164 -0.057007)
 19:    861.39   0.000025    0.13  0.000009  (-0.001276 -0.000761  0.002641)
 20:    867.38   0.076949  388.87  0.027685  ( 0.145328  0.081021  0.000043)
 21:    971.61   0.000477    2.41  0.000153  ( 0.000032 -0.000099 -0.012379)
 22:   1010.85   0.000010    0.05  0.000003  (-0.000022  0.000350  0.001680)
 23:   1024.66   0.000687    3.47  0.000209  (-0.014330  0.001953  0.000002)
 24:   1032.48   0.000010    0.05  0.000003  (-0.000036 -0.000143 -0.001701)
 25:   1053.75   0.001278    6.46  0.000378  ( 0.016571 -0.010184 -0.000086)
 26:   1114.37   0.002453   12.40  0.000687  (-0.006344  0.025432 -0.000017)
 27:   1174.18   0.000164    0.83  0.000044  ( 0.000233 -0.006592 -0.000021)
 28:   1186.92   0.023788  120.21  0.006254  (-0.078859 -0.005954  0.000038)
 29:   1227.85   0.056463  285.34  0.014350  ( 0.117447  0.023593 -0.000031)
 30:   1341.08   0.000949    4.79  0.000221  (-0.010774 -0.010230  0.000043)
 31:   1382.61   0.003380   17.08  0.000763  ( 0.001465 -0.027582  0.000006)
 32:   1482.28   0.007948   40.16  0.001673  (-0.024580 -0.032696 -0.000001)
 33:   1521.28   0.000106    0.54  0.000022  ( 0.000956  0.004561  0.000001)
 34:   1630.41   0.004330   21.88  0.000829  ( 0.026497 -0.011253 -0.000006)
 35:   1644.90   0.016055   81.13  0.003046  (-0.051328  0.020278 -0.000013)
 36:   1823.96   0.132451  669.35  0.022661  (-0.062350  0.137017 -0.000061)
 37:   3198.88   0.000217    1.09  0.000021  (-0.004423  0.001253  0.000036)
 38:   3209.69   0.001860    9.40  0.000181  (-0.003829 -0.012892  0.000052)
 39:   3217.48   0.002537   12.82  0.000246  ( 0.012814 -0.009046  0.000097)
 40:   3226.05   0.002240   11.32  0.000217  (-0.012985 -0.006932  0.000032)
 41:   3237.92   0.000354    1.79  0.000034  ( 0.003784 -0.004446 -0.000002)

--------------------------
THERMOCHEMISTRY AT 298.15K
--------------------------

Temperature         ...   298.15 K
Pressure            ...     1.00 atm
Total Mass          ...   140.57 AMU
Quasi RRHO          ...     True
Cut-Off Frequency   ...     1.00 cm^-1

Throughout the following assumptions are being made:
  (1) The electronic state is orbitally nondegenerate
  (2) There are no thermally accessible electronically excited states
  (3) Hindered rotations indicated by low frequency modes are not
      treated as such but are treated as vibrations and this may
      cause some error
  (4) All equations used are the standard statistical mechanics
      equations for an ideal gas
  (5) All vibrations are strictly harmonic

freq.      21.67  E(vib)   ...       0.56
freq.     145.50  E(vib)   ...       0.41
freq.     192.17  E(vib)   ...       0.36
freq.     316.58  E(vib)   ...       0.25
freq.     405.86  E(vib)   ...       0.19
freq.     413.29  E(vib)   ...       0.19
freq.     426.64  E(vib)   ...       0.18
freq.     506.26  E(vib)   ...       0.14
freq.     627.95  E(vib)   ...       0.09
freq.     667.60  E(vib)   ...       0.08
freq.     671.94  E(vib)   ...       0.08
freq.     692.74  E(vib)   ...       0.07
freq.     796.53  E(vib)   ...       0.05
freq.     861.39  E(vib)   ...       0.04
freq.     867.38  E(vib)   ...       0.04
freq.     971.61  E(vib)   ...       0.03
freq.    1010.85  E(vib)   ...       0.02
freq.    1024.66  E(vib)   ...       0.02
freq.    1032.48  E(vib)   ...       0.02
freq.    1053.75  E(vib)   ...       0.02
freq.    1114.37  E(vib)   ...       0.01
freq.    1174.18  E(vib)   ...       0.01
freq.    1186.92  E(vib)   ...       0.01
freq.    1227.85  E(vib)   ...       0.01
freq.    1341.08  E(vib)   ...       0.01
freq.    1382.61  E(vib)   ...       0.01
freq.    1482.28  E(vib)   ...       0.00
freq.    1521.28  E(vib)   ...       0.00
freq.    1630.41  E(vib)   ...       0.00
freq.    1644.90  E(vib)   ...       0.00
freq.    1823.96  E(vib)   ...       0.00
freq.    3198.88  E(vib)   ...       0.00
freq.    3209.69  E(vib)   ...       0.00
freq.    3217.48  E(vib)   ...       0.00
freq.    3226.05  E(vib)   ...       0.00
freq.    3237.92  E(vib)   ...       0.00

------------
INNER ENERGY
------------

The inner energy is: U= E(el) + E(ZPE) + E(vib) + E(rot) + E(trans)
    E(el)   - is the total energy from the electronic structure calculation
              = E(kin-el) + E(nuc-el) + E(el-el) + E(nuc-nuc)
    E(ZPE)  - the the zero temperature vibrational energy from the frequency calculation
    E(vib)  - the the finite temperature correction to E(ZPE) due to population
              of excited vibrational states
    E(rot)  - is the rotational thermal energy
    E(trans)- is the translational thermal energy

Summary of contributions to the inner energy U:
Electronic energy                ...   -805.11049772 Eh
Zero point energy                ...      0.10098376 Eh      63.37 kcal/mol
Thermal vibrational correction   ...      0.00461989 Eh       2.90 kcal/mol
Thermal rotational correction    ...      0.00141627 Eh       0.89 kcal/mol
Thermal translational correction ...      0.00141627 Eh       0.89 kcal/mol
-----------------------------------------------------------------------
Total thermal energy                   -805.00206153 Eh

Summary of corrections to the electronic energy:
(perhaps to be used in another calculation)
Total thermal correction                  0.00745243 Eh       4.68 kcal/mol
Non-thermal (ZPE) correction              0.10098376 Eh      63.37 kcal/mol
-----------------------------------------------------------------------
Total correction                          0.10843619 Eh      68.04 kcal/mol

--------
ENTHALPY
--------

The enthalpy is H = U + kB*T
                kB is Boltzmann's constant
Total thermal energy              ...   -805.00206153 Eh
Thermal Enthalpy correction       ...      0.00094421 Eh       0.59 kcal/mol
-----------------------------------------------------------------------
Total Enthalpy                    ...   -805.00111732 Eh

Note: Only C1 symmetry has been detected, increase convergence thresholds
      if your molecule has a higher symmetry. Symmetry factor of 1.0 is
      used for the rotational entropy correction.

Note: Rotational entropy computed according to Herzberg
Infrared and Raman Spectra, Chapter V,1, Van Nostrand Reinhold, 1945
Point Group:  C1, Symmetry Number:   1
Rotational constants in cm-1:     0.104567     0.031113     0.023979

Vibrational entropy computed according to the QRRHO of S. Grimme
Chem.Eur.J. 2012 18 9955 using a reference frequency of 100.0 cm-1

-------
ENTROPY
-------

The entropy contributions are T*S = T*(S(el)+S(vib)+S(rot)+S(trans))
     S(el)   - electronic entropy
     S(vib)  - vibrational entropy
     S(rot)  - rotational entropy
     S(trans)- translational entropy
The entropies will be listed as multiplied by the temperature to get
units of energy

Electronic entropy                ...      0.00000000 Eh      0.00 kcal/mol
Vibrational entropy               ...      0.00789688 Eh      4.96 kcal/mol
Rotational entropy                ...      0.01397614 Eh      8.77 kcal/mol
Translational entropy             ...      0.01935352 Eh     12.14 kcal/mol
-----------------------------------------------------------------------
Final entropy term                ...      0.04122655 Eh     25.87 kcal/mol

In case the symmetry of your molecule has not been determined correctly
or in case you have a reason to use a different symmetry number we print
out the resulting rotational entropy values for sn=1,12:

 non-linear molecules -----------------------------------
|  sn= 1 | S(rot)=       0.01397614 Eh      8.77 kcal/mol|
|  sn= 2 | S(rot)=       0.01332169 Eh      8.36 kcal/mol|
|  sn= 3 | S(rot)=       0.01293885 Eh      8.12 kcal/mol|
|  sn= 4 | S(rot)=       0.01266723 Eh      7.95 kcal/mol|
|  sn= 5 | S(rot)=       0.01245654 Eh      7.82 kcal/mol|
|  sn= 6 | S(rot)=       0.01228440 Eh      7.71 kcal/mol|
|  sn= 7 | S(rot)=       0.01213885 Eh      7.62 kcal/mol|
|  sn= 8 | S(rot)=       0.01201277 Eh      7.54 kcal/mol|
|  sn= 9 | S(rot)=       0.01190157 Eh      7.47 kcal/mol|
|  sn=10 | S(rot)=       0.01180209 Eh      7.41 kcal/mol|
|  sn=11 | S(rot)=       0.01171210 Eh      7.35 kcal/mol|
|  sn=12 | S(rot)=       0.01162994 Eh      7.30 kcal/mol|
 linear molecules ---------------------------------------
|  Dinfh | S(rot)=       0.00884816 Eh      5.55 kcal/mol|
|  Cinfv | S(rot)=       0.00950262 Eh      5.96 kcal/mol|
 --------------------------------------------------------

-------------------
GIBBS FREE ENERGY
-------------------

The Gibbs free energy is G = H - T*S

                             ****ORCA TERMINATED NORMALLY****
TOTAL RUN TIME: 0 days 0 hours 27 minutes 1 seconds 215 msec
