                         Program Version 6.0.0  -   RELEASE  -
|  1> !B3LYP opt aug-cc-pVTZ d3 TightSCF SlowConv RIJCOSX defgrid2
|  2>
|  3> %pal
|  4> nprocs 8
|  5> end
|  6>
|  7> %scf
|  8> MaxIter 1500
|  9> end
| 10>
| 11> %maxcore 3500
| 12>
| 13> !CPCM
| 14> %cpcm smd true
| 15> SMDsolvent "MeCN"
| 16> surfacetype gepol_ses
| 17> rsolv 2.19
| 18> end
| 19>
| 20> * xyz 1 2
| 21> C           0.96002552011709     -1.32253975774944      0.00002107203161
| 22> C           2.30946577689281     -1.05292578484351     -0.00001183018851
| 23> C           2.75162476164071      0.28756052755572     -0.00002650301661
| 24> C           1.83902538005307      1.36187223575537     -0.00000118304244
| 25> C           0.48711647576379      1.10797066538425      0.00002893131122
| 26> C           0.02041417697925     -0.24724272024865      0.00003631726405
| 27> C          -1.36049677571781     -0.55035510408661      0.00004151636512
| 28> N          -2.24435922885682      0.43165315940707      0.00003462017491
| 29> O          -3.46568256477989     -0.02410885729296      0.00002059528734
| 30> H          -4.06414072403569      0.75247060999126      0.00003013023410
| 31> H          -1.71241527206750     -1.59215357045924      0.00004127844656
| 32> H          -0.24324441524782      1.92013568517355      0.00004228420146
| 33> H           2.20910910746605      2.39016696582870     -0.00001172730682
| 34> H           3.82614866589464      0.49606739820897     -0.00005739041351
| 35> H           3.03863533465800     -1.86708723654366     -0.00002808352063
| 36> H           0.59646668124012     -2.35410821608081      0.00003057217215
| 37> *
| 38>
| 39>                          ****END OF INPUT****
 Total Charge           Charge          ....    1
 Multiplicity           Mult            ....    2
 Number of Electrons    NEL             ....   63
Dispersion correction           -0.027440981
FINAL SINGLE POINT ENERGY      -400.608988031931
Dispersion correction             ... done (  0.0 sec)
Dispersion correction           -0.027527243
FINAL SINGLE POINT ENERGY      -400.610476328713
Dispersion correction             ... done (  0.1 sec)
Dispersion correction           -0.027545098
FINAL SINGLE POINT ENERGY      -400.610646943909
Dispersion correction             ... done (  0.0 sec)
Dispersion correction           -0.027539257
FINAL SINGLE POINT ENERGY      -400.610686711857
Dispersion correction             ... done (  0.1 sec)
Dispersion correction           -0.027535537
FINAL SINGLE POINT ENERGY      -400.610692619861
Dispersion correction             ... done (  0.0 sec)
                    ***********************HURRAY********************

CARTESIAN COORDINATES (ANGSTROEM)
---------------------------------
  C      0.953160   -1.311746    0.001738
  C      2.297162   -1.050954   -0.001534
  C      2.745163    0.281813   -0.002014
  C      1.841972    1.358185    0.000711
  C      0.495937    1.115507    0.003255
  C      0.023984   -0.233655    0.003531
  C     -1.350261   -0.543195    0.003127
  N     -2.234969    0.432703   -0.000337
  O     -3.480274   -0.056096   -0.005643
  H     -4.066002    0.726842   -0.005845
  H     -1.680991   -1.576956    0.004035
  H     -0.216232    1.925836    0.005337
  H      2.216055    2.371023    0.000166
  H      3.807457    0.481655   -0.004724
  H      3.014708   -1.857592   -0.003825
  H      0.580824   -2.325992    0.002211

 Multiplicity           Mult            ....    2
 Number of Electrons    NEL             ....   63
 Basis Dimension        Dim             ....  575

ORBITAL ENERGIES
----------------
                 SPIN UP ORBITALS
  NO   OCC          E(Eh)            E(eV)
   0   1.0000     -19.254855      -523.9513
   1   1.0000     -14.447442      -393.1349
   2   1.0000     -10.268746      -279.4268
   3   1.0000     -10.251843      -278.9668
   4   1.0000     -10.236454      -278.5481
   5   1.0000     -10.226041      -278.2647
   6   1.0000     -10.224832      -278.2318
   7   1.0000     -10.212393      -277.8933
   8   1.0000     -10.210217      -277.8341
   9   1.0000      -1.182117       -32.1670
  10   1.0000      -0.937794       -25.5187
  11   1.0000      -0.894895       -24.3513
  12   1.0000      -0.804296       -21.8860
  13   1.0000      -0.792340       -21.5607
  14   1.0000      -0.695118       -18.9151
  15   1.0000      -0.651112       -17.7177
  16   1.0000      -0.617517       -16.8035
  17   1.0000      -0.586572       -15.9614
  18   1.0000      -0.558840       -15.2068
  19   1.0000      -0.524425       -14.2703
  20   1.0000      -0.507303       -13.8044
  21   1.0000      -0.497719       -13.5436
  22   1.0000      -0.477670       -12.9981
  23   1.0000      -0.461084       -12.5467
  24   1.0000      -0.454696       -12.3729
  25   1.0000      -0.426036       -11.5930
  26   1.0000      -0.392869       -10.6905
  27   1.0000      -0.380513       -10.3543
  28   1.0000      -0.355540        -9.6747
  29   1.0000      -0.343528        -9.3479
  30   1.0000      -0.300202        -8.1689
  31   1.0000      -0.286421        -7.7939
  32   0.0000      -0.113909        -3.0996
  33   0.0000      -0.045675        -1.2429
  34   0.0000      -0.012071        -0.3285
  35   0.0000      -0.009738        -0.2650
  36   0.0000      -0.002151        -0.0585

                 SPIN DOWN ORBITALS
  NO   OCC          E(Eh)            E(eV)
   0   1.0000     -19.248716      -523.7842
   1   1.0000     -14.440234      -392.9387
   2   1.0000     -10.269406      -279.4447
   3   1.0000     -10.249067      -278.8913
   4   1.0000     -10.232639      -278.4443
   5   1.0000     -10.224536      -278.2238
   6   1.0000     -10.223924      -278.2071
   7   1.0000     -10.212663      -277.9007
   8   1.0000     -10.210898      -277.8527
   9   1.0000      -1.169029       -31.8109
  10   1.0000      -0.927747       -25.2453
  11   1.0000      -0.886411       -24.1205
  12   1.0000      -0.795987       -21.6599
  13   1.0000      -0.789201       -21.4752
  14   1.0000      -0.690494       -18.7893
  15   1.0000      -0.648110       -17.6360
  16   1.0000      -0.613262       -16.6877
  17   1.0000      -0.581465       -15.8225
  18   1.0000      -0.556093       -15.1321
  19   1.0000      -0.520667       -14.1681
  20   1.0000      -0.495447       -13.4818
  21   1.0000      -0.475060       -12.9270
  22   1.0000      -0.471140       -12.8204
  23   1.0000      -0.460501       -12.5309
  24   1.0000      -0.452420       -12.3110
  25   1.0000      -0.407329       -11.0840
  26   1.0000      -0.391887       -10.6638
  27   1.0000      -0.378374       -10.2961
  28   1.0000      -0.336048        -9.1443
  29   1.0000      -0.327517        -8.9122
  30   1.0000      -0.296384        -8.0650
  31   0.0000      -0.208861        -5.6834
  32   0.0000      -0.086893        -2.3645
  33   0.0000      -0.037489        -1.0201
  34   0.0000      -0.009018        -0.2454
  35   0.0000      -0.001721        -0.0468

MULLIKEN ATOMIC CHARGES AND SPIN POPULATIONS
--------------------------------------------
   0 C :   -0.763778    0.043050
   1 C :   -0.540229   -0.014678
   2 C :   -0.098050    0.258636
   3 C :   -0.730172   -0.052825
   4 C :   -0.576211    0.088828
   5 C :    1.743832    0.217054
   6 C :    0.104255   -0.037440
   7 N :   -0.354864    0.318129
   8 O :   -0.215721    0.200018
   9 H :    0.224197   -0.008012
  10 H :    0.483555    0.003097
  11 H :    0.087754   -0.010959
  12 H :    0.589737    0.003309
  13 H :    0.427510   -0.002934
  14 H :    0.589171    0.002674
  15 H :    0.029014   -0.007947
Sum of atomic charges         :    1.0000000

LOEWDIN ATOMIC CHARGES AND SPIN POPULATIONS
-------------------------------------------
   0 C :    0.273151    0.057056
   1 C :    0.274798    0.043787
   2 C :    0.292032    0.132557
   3 C :    0.270364    0.035241
   4 C :    0.266095    0.070172
   5 C :   -0.098499    0.114841
   6 C :    0.086130    0.054615
   7 N :    0.218455    0.244419
   8 O :    0.750318    0.196507
   9 H :   -0.425071    0.012811
  10 H :   -0.149054   -0.005665
  11 H :   -0.169101    0.008996
  12 H :   -0.153610   -0.002768
  13 H :   -0.139324    0.030042
  14 H :   -0.152107    0.000310
  15 H :   -0.144576    0.007078

  Mayer bond orders larger than 0.100000
B(  0-C ,  1-C ) :   1.3067 B(  0-C ,  2-C ) :  -0.1359 B(  0-C ,  4-C ) :  -0.4386
B(  0-C , 11-H ) :   0.1224 B(  0-C , 14-H ) :  -0.2086 B(  0-C , 15-H ) :   1.6614
B(  1-C ,  2-C ) :   1.1679 B(  1-C ,  3-C ) :   0.1654 B(  1-C , 11-H ) :  -0.1013
B(  1-C , 14-H ) :   0.4338 B(  1-C , 15-H ) :  -0.1076 B(  2-C ,  3-C ) :   1.1093
B(  2-C ,  4-C ) :  -0.1666 B(  2-C ,  5-C ) :  -0.1951 B(  2-C ,  6-C ) :   0.1752
B(  2-C , 13-H ) :   0.7083 B(  3-C ,  4-C ) :   1.3322 B(  3-C ,  5-C ) :   0.1213
B(  3-C , 12-H ) :   0.4095 B(  4-C ,  5-C ) :   0.3356 B(  4-C ,  6-C ) :   0.2133
B(  4-C , 11-H ) :   1.3060 B(  4-C , 15-H ) :   0.1328 B(  5-C ,  6-C ) :   0.3459
B(  5-C , 11-H ) :  -0.1432 B(  5-C , 12-H ) :   0.1017 B(  5-C , 14-H ) :   0.1318
B(  5-C , 15-H ) :  -0.1843 B(  6-C ,  7-N ) :   0.8167 B(  6-C , 10-H ) :   0.5493
B(  6-C , 15-H ) :  -0.1452 B(  7-N ,  8-O ) :   0.8183 B(  7-N , 10-H ) :  -0.1063
B(  8-O ,  9-H ) :   0.9643 B( 11-H , 15-H ) :   0.1674

Dispersion correction           -0.027534885
FINAL SINGLE POINT ENERGY      -400.610693623361

DIPOLE MOMENT
-------------

Method             : SCF
Type of density    : Electron Density
Multiplicity       :   2
Irrep              :   0
Energy             :  -400.5831587386526849 Eh
Relativity type    :
Basis              : AO
                                X                 Y                 Z
Electronic contribution:     -3.189140530       0.147325731       0.003289008
Nuclear contribution   :      3.319181575      -0.253808841      -0.003013371
                        -----------------------------------------
Total Dipole Moment    :      0.130041045      -0.106483109       0.000275638
                        -----------------------------------------
Magnitude (a.u.)       :      0.168075584
Magnitude (Debye)      :      0.427214183

Rotational constants in cm-1:             0.167784             0.031057             0.026207
Rotational constants in MHz :          5030.042288           931.078764           785.654411

                             ****ORCA TERMINATED NORMALLY****
TOTAL RUN TIME: 0 days 0 hours 25 minutes 20 seconds 898 msec
