                         Program Version 6.0.0  -   RELEASE  -
|  1> !TPSSh opt aug-cc-pVTZ d3 TightSCF SlowConv RIJCOSX defgrid2
|  2>
|  3> %pal
|  4> nprocs 8
|  5> end
|  6>
|  7> %scf
|  8> MaxIter 1500
|  9> end
| 10>
| 11> %maxcore 3500
| 12>
| 13> !CPCM
| 14> %cpcm smd true
| 15> SMDsolvent "MeCN"
| 16> surfacetype gepol_ses
| 17> rsolv 2.19
| 18> end
| 19>
| 20> * xyz -1 2
| 21> C          -0.01331421056281      1.21015152275559     -0.00003912841012
| 22> C           1.37407426915828      1.22077182581697      0.00009471803504
| 23> C           2.08268728216500      0.01623593632828      0.00008078293558
| 24> C           1.39800867624770     -1.21018542596672     -0.00005492668248
| 25> C           0.01763373542032     -1.22524409629627     -0.00018246787257
| 26> C          -0.75988843497050     -0.01763719993150     -0.00018385015586
| 27> C          -2.18998893121825     -0.10468719257966     -0.00029823993913
| 28> O          -2.82191384294989     -1.19348424477804     -0.00032077578394
| 29> C          -2.98040993394950      1.20193760901241     -0.00023396308602
| 30> H          -2.77113925068928      1.83311429650402      0.88831166373856
| 31> H          -2.77095660989795      1.83331313895105     -0.88859326031545
| 32> H          -4.05230547218906      0.94280281896802     -0.00037251615162
| 33> H          -0.53955758793286     -2.16627118900373     -0.00028423650614
| 34> H           1.97817281356228     -2.14018774357936     -0.00004958149680
| 35> F           3.44427090335711      0.03016813897025      0.00021925839865
| 36> H           1.93269491180525      2.16366570442592      0.00021265957610
| 37> H          -0.54367651735585      2.16766590040277     -0.00001523628380
| 38> *
| 39>
| 40>                          ****END OF INPUT****
 Total Charge           Charge          ....   -1
 Multiplicity           Mult            ....    2
 Number of Electrons    NEL             ....   73
Dispersion correction           -0.020384462
FINAL SINGLE POINT ENERGY      -484.439732146530
Dispersion correction             ... done (  0.1 sec)
Dispersion correction           -0.020419298
FINAL SINGLE POINT ENERGY      -484.441123871526
Dispersion correction             ... done (  0.1 sec)
Dispersion correction           -0.020430731
FINAL SINGLE POINT ENERGY      -484.441415405261
Dispersion correction             ... done (  0.1 sec)
FINAL SINGLE POINT ENERGY      -484.441464360869
Dispersion correction             ... done (  0.1 sec)
Dispersion correction           -0.020426381
FINAL SINGLE POINT ENERGY      -484.441469929676
Dispersion correction             ... done (  0.1 sec)
Dispersion correction           -0.020425055
FINAL SINGLE POINT ENERGY      -484.441471544110
Dispersion correction             ... done (  0.1 sec)
                    ***********************HURRAY********************

CARTESIAN COORDINATES (ANGSTROEM)
---------------------------------
  C     -0.023176    1.199553   -0.000295
  C      1.360339    1.223710    0.000195
  C      2.057594    0.016406    0.000091
  C      1.402503   -1.212980   -0.000953
  C      0.019997   -1.236433   -0.001288
  C     -0.758514   -0.030770   -0.000346
  C     -2.185456   -0.088863    0.001588
  O     -2.828470   -1.196997    0.004989
  C     -2.971070    1.211928   -0.000700
  H     -2.758319    1.832291    0.879319
  H     -2.753702    1.832121   -0.879702
  H     -4.036784    0.978969   -0.003347
  H     -0.506249   -2.182897   -0.001919
  H      1.978288   -2.131852   -0.001505
  F      3.439532    0.041252    0.001197
  H      1.901851    2.162721    0.000802
  H     -0.553975    2.143969    0.000167

 Multiplicity           Mult            ....    2
 Number of Electrons    NEL             ....   73
 Basis Dimension        Dim             ....  621

ORBITAL ENERGIES
----------------
                 SPIN UP ORBITALS
  NO   OCC          E(Eh)            E(eV)
   0   1.0000     -24.592082      -669.1846
   1   1.0000     -18.970185      -516.2050
   2   1.0000     -10.162217      -276.5280
   3   1.0000     -10.121844      -275.4294
   4   1.0000     -10.099729      -274.8276
   5   1.0000     -10.099460      -274.8203
   6   1.0000     -10.095944      -274.7246
   7   1.0000     -10.091274      -274.5975
   8   1.0000     -10.083141      -274.3762
   9   1.0000     -10.081751      -274.3384
  10   1.0000      -1.172343       -31.9011
  11   1.0000      -0.926476       -25.2107
  12   1.0000      -0.813613       -22.1395
  13   1.0000      -0.721052       -19.6208
  14   1.0000      -0.712213       -19.3803
  15   1.0000      -0.672574       -18.3017
  16   1.0000      -0.588647       -16.0179
  17   1.0000      -0.573817       -15.6144
  18   1.0000      -0.508024       -13.8240
  19   1.0000      -0.497763       -13.5448
  20   1.0000      -0.442071       -12.0294
  21   1.0000      -0.425877       -11.5887
  22   1.0000      -0.419851       -11.4247
  23   1.0000      -0.406908       -11.0725
  24   1.0000      -0.389709       -10.6045
  25   1.0000      -0.388275       -10.5655
  26   1.0000      -0.369134       -10.0446
  27   1.0000      -0.359864        -9.7924
  28   1.0000      -0.334654        -9.1064
  29   1.0000      -0.333404        -9.0724
  30   1.0000      -0.322567        -8.7775
  31   1.0000      -0.294441        -8.0121
  32   1.0000      -0.293066        -7.9747
  33   1.0000      -0.238652        -6.4941
  34   1.0000      -0.218233        -5.9384
  35   1.0000      -0.185382        -5.0445
  36   1.0000      -0.083188        -2.2637
  37   0.0000      -0.011200        -0.3048
  38   0.0000      -0.002354        -0.0641
  39   0.0000       0.010874         0.2959
  40   0.0000       0.014138         0.3847
  41   0.0000       0.024950         0.6789

                 SPIN DOWN ORBITALS
  NO   OCC          E(Eh)            E(eV)
   0   1.0000     -24.591255      -669.1621
   1   1.0000     -18.964329      -516.0456
   2   1.0000     -10.157375      -276.3962
   3   1.0000     -10.117083      -275.2998
   4   1.0000     -10.101156      -274.8664
   5   1.0000     -10.100719      -274.8545
   6   1.0000     -10.093533      -274.6590
   7   1.0000     -10.088411      -274.5196
   8   1.0000     -10.082233      -274.3515
   9   1.0000     -10.082165      -274.3496
  10   1.0000      -1.170549       -31.8523
  11   1.0000      -0.916086       -24.9280
  12   1.0000      -0.810153       -22.0454
  13   1.0000      -0.715978       -19.4827
  14   1.0000      -0.708502       -19.2793
  15   1.0000      -0.670123       -18.2350
  16   1.0000      -0.581238       -15.8163
  17   1.0000      -0.571742       -15.5579
  18   1.0000      -0.504849       -13.7376
  19   1.0000      -0.494136       -13.4461
  20   1.0000      -0.440765       -11.9938
  21   1.0000      -0.417298       -11.3553
  22   1.0000      -0.415989       -11.3196
  23   1.0000      -0.405395       -11.0314
  24   1.0000      -0.389252       -10.5921
  25   1.0000      -0.378726       -10.3057
  26   1.0000      -0.367252        -9.9934
  27   1.0000      -0.358510        -9.7555
  28   1.0000      -0.332341        -9.0435
  29   1.0000      -0.324310        -8.8249
  30   1.0000      -0.319969        -8.7068
  31   1.0000      -0.293265        -7.9801
  32   1.0000      -0.269737        -7.3399
  33   1.0000      -0.230500        -6.2722
  34   1.0000      -0.198654        -5.4056
  35   1.0000      -0.181464        -4.9379
  36   0.0000      -0.029206        -0.7947
  37   0.0000      -0.005558        -0.1513
  38   0.0000      -0.000090        -0.0024
  39   0.0000       0.012028         0.3273
  40   0.0000       0.016465         0.4480

MULLIKEN ATOMIC CHARGES AND SPIN POPULATIONS
--------------------------------------------
   0 C :   -0.396972    0.209335
   1 C :   -0.699676   -0.076474
   2 C :    0.549135    0.235856
   3 C :   -0.558600   -0.081446
   4 C :   -0.702294    0.244307
   5 C :    1.258348    0.011067
   6 C :    0.613674    0.252483
   7 O :   -1.198395    0.225175
   8 C :   -0.299974   -0.028400
   9 H :    0.167428    0.010351
  10 H :    0.168656    0.010206
  11 H :   -0.055559    0.000247
  12 H :    0.093202   -0.017055
  13 H :    0.273233   -0.004715
  14 F :   -0.568151    0.013907
  15 H :    0.254591   -0.002521
  16 H :    0.101355   -0.002323
Sum of atomic charges         :   -1.0000000

LOEWDIN ATOMIC CHARGES AND SPIN POPULATIONS
-------------------------------------------
   0 C :    0.152170    0.086006
   1 C :    0.140856    0.025845
   2 C :   -0.561091    0.126983
   3 C :    0.134531    0.025515
   4 C :    0.142232    0.096109
   5 C :   -0.209158    0.115001
   6 C :   -0.660233    0.196332
   7 O :    0.313460    0.204958
   8 C :    0.498696    0.037755
   9 H :   -0.186285    0.009693
  10 H :   -0.186512    0.009631
  11 H :   -0.208159   -0.000696
  12 H :   -0.222708    0.022586
  13 H :   -0.195980   -0.005369
  14 F :    0.455640    0.035037
  15 H :   -0.195705   -0.004264
  16 H :   -0.211752    0.018878

  Mayer bond orders larger than 0.100000
B(  0-C ,  1-C ) :   1.2414 B(  0-C ,  2-C ) :  -0.1747 B(  0-C ,  4-C ) :  -0.2371
B(  0-C ,  5-C ) :   0.3860 B(  0-C ,  6-C ) :   0.1472 B(  0-C , 16-H ) :   1.1337
B(  1-C ,  2-C ) :   1.3637 B(  1-C ,  3-C ) :   0.2521 B(  1-C , 14-F ) :   0.2007
B(  1-C , 15-H ) :   0.6336 B(  2-C ,  3-C ) :   1.3975 B(  2-C ,  4-C ) :  -0.2245
B(  3-C ,  4-C ) :   1.5232 B(  3-C , 13-H ) :   0.6221 B(  3-C , 14-F ) :   0.1986
B(  4-C ,  5-C ) :   0.2604 B(  4-C ,  6-C ) :   0.2903 B(  4-C , 12-H ) :   0.9795
B(  5-C ,  6-C ) :   0.5919 B(  5-C ,  7-O ) :   0.2424 B(  6-C ,  7-O ) :   0.2777
B(  6-C ,  8-C ) :   1.0257 B(  7-O , 12-H ) :   0.1546 B(  8-C ,  9-H ) :   0.9580
B(  8-C , 10-H ) :   0.9578 B(  8-C , 11-H ) :   1.0518 B( 12-H , 16-H ) :   0.1231
B( 13-H , 14-F ) :   0.1526 B( 14-F , 15-H ) :   0.1353

Dispersion correction           -0.020424670
FINAL SINGLE POINT ENERGY      -484.441471948139

DIPOLE MOMENT
-------------

Method             : SCF
Type of density    : Electron Density
Multiplicity       :   2
Irrep              :   0
Energy             :  -484.4210472785269985 Eh
Relativity type    :
Basis              : AO
                                X                 Y                 Z
Electronic contribution:     11.338813495      -2.810547478       0.005865157
Nuclear contribution   :     -9.546609319       4.321160149      -0.009941526
                        -----------------------------------------
Total Dipole Moment    :      1.792204176       1.510612670      -0.004076369
                        -----------------------------------------
Magnitude (a.u.)       :      2.343920448
Magnitude (Debye)      :      5.957772307

Rotational constants in cm-1:             0.120386             0.025495             0.021121
Rotational constants in MHz :          3609.095119           764.307017           633.200134

                             ****ORCA TERMINATED NORMALLY****
TOTAL RUN TIME: 0 days 0 hours 41 minutes 32 seconds 937 msec
