                         Program Version 6.0.0  -   RELEASE  -
|  1> !r2SCAN aug-cc-pVTZ d3 TightSCF SlowConv RIJCOSX defgrid2
|  2>
|  3> %pal
|  4> nprocs 4
|  5> end
|  6>
|  7> %scf
|  8> MaxIter 1500
|  9> end
| 10>
| 11> %maxcore 3000
| 12>
| 13> !CPCM
| 14> %cpcm smd true
| 15> SMDsolvent "MeCN"
| 16> surfacetype gepol_ses
| 17> rsolv 2.19
| 18> end
| 19>
| 20> * xyz 1 2
| 21> C           0.40691282511463     -1.70325741551343      0.00016490908038
| 22> C          -0.96671189262499     -1.83667983985275      0.00018183586636
| 23> C          -1.68805707115252     -0.64261847572794      0.00008964722041
| 24> C          -1.04965590853916      0.63174029183313     -0.00002815696193
| 25> C           0.31128268883802      0.76926444998310     -0.00006174051828
| 26> C           1.07563281783288     -0.42742383238868      0.00003976058398
| 27> C           2.50697376337741     -0.44842167152090      0.00002305530846
| 28> C           3.33194801420144      0.64326709175403     -0.00015920562991
| 29> C           4.80599658250123      0.57741183606312     -0.00011946162688
| 30> H           5.18832353952918     -0.45487585344274     -0.00025429959810
| 31> H           5.21029428249422      1.11436451749660     -0.88040742471441
| 32> H           5.21019265645541      1.11403585874487      0.88042635965306
| 33> H           2.89207932946336      1.64904733647115     -0.00030687813280
| 34> H           2.97508026944189     -1.43956967985044      0.00016270833927
| 35> H           0.76741616602726      1.75937954473271     -0.00014274226054
| 36> O          -1.99397501474410      1.57230653765351     -0.00008671930137
| 37> C          -3.25136220491207      0.93015345618164     -0.00001294315373
| 38> H          -3.81339036666005      1.19156590903578     -0.91179779853392
| 39> H          -3.81336621741767      1.19172534012324      0.91174226589655
| 40> O          -2.99199983018881     -0.47270763267778      0.00010157254283
| 41> H          -1.46695007676095     -2.80656600519405      0.00027477962737
| 42> H           1.02699584772340     -2.60385336390417      0.00024457631318
| 43> *
| 44>
| 45>                          ****END OF INPUT****

CARTESIAN COORDINATES (ANGSTROEM)
---------------------------------
  C      0.406913   -1.703257    0.000165
  C     -0.966712   -1.836680    0.000182
  C     -1.688057   -0.642618    0.000090
  C     -1.049656    0.631740   -0.000028
  C      0.311283    0.769264   -0.000062
  C      1.075633   -0.427424    0.000040
  C      2.506974   -0.448422    0.000023
  C      3.331948    0.643267   -0.000159
  C      4.805997    0.577412   -0.000119
  H      5.188324   -0.454876   -0.000254
  H      5.210294    1.114365   -0.880407
  H      5.210193    1.114036    0.880426
  H      2.892079    1.649047   -0.000307
  H      2.975080   -1.439570    0.000163
  H      0.767416    1.759380   -0.000143
  O     -1.993975    1.572307   -0.000087
  C     -3.251362    0.930153   -0.000013
  H     -3.813390    1.191566   -0.911798
  H     -3.813366    1.191725    0.911742
  O     -2.992000   -0.472708    0.000102
  H     -1.466950   -2.806566    0.000275
  H      1.026996   -2.603853    0.000245

 Total Charge           Charge          ....    1
 Multiplicity           Mult            ....    2
 Number of Electrons    NEL             ....   85
 Basis Dimension        Dim             ....  782

ORBITAL ENERGIES
----------------
                 SPIN UP ORBITALS
  NO   OCC          E(Eh)            E(eV)
   0   1.0000     -19.069709      -518.9132
   1   1.0000     -19.055312      -518.5214
   2   1.0000     -10.181976      -277.0657
   3   1.0000     -10.162889      -276.5463
   4   1.0000     -10.150328      -276.2045
   5   1.0000     -10.105452      -274.9833
   6   1.0000     -10.090275      -274.5703
   7   1.0000     -10.087927      -274.5064
   8   1.0000     -10.081071      -274.3199
   9   1.0000     -10.075302      -274.1629
  10   1.0000     -10.071224      -274.0519
  11   1.0000     -10.043520      -273.2981
  12   1.0000      -1.162535       -31.6342
  13   1.0000      -1.071706       -29.1626
  14   1.0000      -0.873489       -23.7689
  15   1.0000      -0.808765       -22.0076
  16   1.0000      -0.769797       -20.9472
  17   1.0000      -0.759419       -20.6649
  18   1.0000      -0.701647       -19.0928
  19   1.0000      -0.664287       -18.0762
  20   1.0000      -0.635572       -17.2948
  21   1.0000      -0.628145       -17.0927
  22   1.0000      -0.559064       -15.2129
  23   1.0000      -0.535206       -14.5637
  24   1.0000      -0.532084       -14.4788
  25   1.0000      -0.521788       -14.1986
  26   1.0000      -0.495442       -13.4817
  27   1.0000      -0.452981       -12.3262
  28   1.0000      -0.443662       -12.0727
  29   1.0000      -0.434634       -11.8270
  30   1.0000      -0.414985       -11.2923
  31   1.0000      -0.408895       -11.1266
  32   1.0000      -0.403698       -10.9852
  33   1.0000      -0.396826       -10.7982
  34   1.0000      -0.394779       -10.7425
  35   1.0000      -0.392713       -10.6863
  36   1.0000      -0.361197        -9.8287
  37   1.0000      -0.351288        -9.5590
  38   1.0000      -0.350132        -9.5276
  39   1.0000      -0.337080        -9.1724
  40   1.0000      -0.291035        -7.9195
  41   1.0000      -0.254308        -6.9201
  42   1.0000      -0.223013        -6.0685
  43   0.0000      -0.103278        -2.8103
  44   0.0000      -0.064949        -1.7674
  45   0.0000      -0.011462        -0.3119
  46   0.0000       0.001924         0.0524
  47   0.0000       0.015072         0.4101

                 SPIN DOWN ORBITALS
  NO   OCC          E(Eh)            E(eV)
   0   1.0000     -19.064721      -518.7774
   1   1.0000     -19.052594      -518.4475
   2   1.0000     -10.182145      -277.0702
   3   1.0000     -10.159092      -276.4430
   4   1.0000     -10.149080      -276.1705
   5   1.0000     -10.102637      -274.9067
   6   1.0000     -10.087326      -274.4901
   7   1.0000     -10.082475      -274.3581
   8   1.0000     -10.081718      -274.3375
   9   1.0000     -10.076432      -274.1936
  10   1.0000     -10.071993      -274.0729
  11   1.0000     -10.043686      -273.3026
  12   1.0000      -1.157620       -31.5004
  13   1.0000      -1.065933       -29.0055
  14   1.0000      -0.867805       -23.6142
  15   1.0000      -0.801799       -21.8181
  16   1.0000      -0.765979       -20.8434
  17   1.0000      -0.753720       -20.5098
  18   1.0000      -0.700838       -19.0708
  19   1.0000      -0.658243       -17.9117
  20   1.0000      -0.632879       -17.2215
  21   1.0000      -0.624211       -16.9857
  22   1.0000      -0.554268       -15.0824
  23   1.0000      -0.533171       -14.5083
  24   1.0000      -0.522249       -14.2111
  25   1.0000      -0.519524       -14.1370
  26   1.0000      -0.493035       -13.4162
  27   1.0000      -0.451048       -12.2736
  28   1.0000      -0.442889       -12.0516
  29   1.0000      -0.432125       -11.7587
  30   1.0000      -0.401750       -10.9322
  31   1.0000      -0.400480       -10.8976
  32   1.0000      -0.395090       -10.7509
  33   1.0000      -0.392931       -10.6922
  34   1.0000      -0.389665       -10.6033
  35   1.0000      -0.387916       -10.5557
  36   1.0000      -0.359663        -9.7869
  37   1.0000      -0.348773        -9.4906
  38   1.0000      -0.337098        -9.1729
  39   1.0000      -0.335524        -9.1301
  40   1.0000      -0.281144        -7.6503
  41   1.0000      -0.246431        -6.7057
  42   0.0000      -0.191583        -5.2132
  43   0.0000      -0.079291        -2.1576
  44   0.0000      -0.051412        -1.3990
  45   0.0000       0.002946         0.0802
  46   0.0000       0.006112         0.1663

MULLIKEN ATOMIC CHARGES AND SPIN POPULATIONS
--------------------------------------------
   0 C :   -0.882650    0.119731
   1 C :   -0.575290   -0.076977
   2 C :    0.899101    0.214741
   3 C :    0.968896    0.113901
   4 C :   -0.471732   -0.098940
   5 C :    1.635907    0.215234
   6 C :   -0.242285   -0.060403
   7 C :   -0.015290    0.294242
   8 C :   -0.792518   -0.037209
   9 H :    0.243655   -0.006021
  10 H :    0.173496    0.029394
  11 H :    0.173953    0.029418
  12 H :    0.101002    0.025261
  13 H :   -0.027342   -0.000760
  14 H :    0.006171   -0.022312
  15 O :   -0.654778    0.078107
  16 C :   -0.083354   -0.043176
  17 H :    0.278637    0.022072
  18 H :    0.278305    0.022065
  19 O :   -0.652480    0.149884
  20 H :    0.564868   -0.000931
  21 H :    0.073730    0.032681
Sum of atomic charges         :    1.0000000

LOEWDIN ATOMIC CHARGES AND SPIN POPULATIONS
-------------------------------------------
   0 C :    0.263196    0.108320
   1 C :    0.292501    0.039681
   2 C :   -0.347118    0.131816
   3 C :   -0.344974    0.064925
   4 C :    0.280941   -0.002953
   5 C :   -0.096998    0.096416
   6 C :    0.256762    0.051947
   7 C :    0.269407    0.160020
   8 C :    0.597075    0.052470
   9 H :   -0.159701    0.000951
  10 H :   -0.146197    0.011780
  11 H :   -0.146180    0.011789
  12 H :   -0.157756    0.029686
  13 H :   -0.165250   -0.003124
  14 H :   -0.159246   -0.006809
  15 O :    0.661617    0.066938
  16 C :   -0.046334    0.023456
  17 H :   -0.118791    0.009013
  18 H :   -0.118792    0.009013
  19 O :    0.673769    0.129129
  20 H :   -0.142004   -0.002918
  21 H :   -0.145924    0.018453

  Mayer bond orders larger than 0.100000
B(  0-C ,  1-C ) :   1.2668 B(  0-C ,  2-C ) :  -0.2647 B(  0-C ,  3-C ) :  -0.2444
B(  0-C ,  4-C ) :  -0.1327 B(  0-C ,  5-C ) :   0.3257 B(  0-C ,  7-C ) :   0.2897
B(  0-C , 21-H ) :   1.2879 B(  1-C ,  2-C ) :   0.5828 B(  1-C ,  4-C ) :  -0.1775
B(  1-C ,  5-C ) :   0.1160 B(  1-C , 20-H ) :   0.3101 B(  1-C , 21-H ) :  -0.1068
B(  2-C ,  3-C ) :   1.1351 B(  2-C ,  4-C ) :  -0.1437 B(  2-C ,  5-C ) :  -0.1058
B(  2-C ,  6-C ) :   0.1884 B(  2-C , 19-O ) :   0.3693 B(  2-C , 20-H ) :   0.1017
B(  3-C ,  4-C ) :   0.3608 B(  3-C ,  5-C ) :   0.4385 B(  3-C ,  7-C ) :  -0.1063
B(  3-C , 14-H ) :  -0.1697 B(  3-C , 15-O ) :   0.1460 B(  4-C ,  5-C ) :   0.1299
B(  4-C ,  7-C ) :  -0.1265 B(  4-C , 12-H ) :  -0.1632 B(  4-C , 14-H ) :   1.2746
B(  4-C , 15-O ) :   0.2499 B(  5-C ,  7-C ) :  -0.1260 B(  5-C ,  8-C ) :   0.1263
B(  5-C , 12-H ) :  -0.2247 B(  5-C , 13-H ) :  -0.1266 B(  5-C , 14-H ) :  -0.2070
B(  5-C , 21-H ) :  -0.1069 B(  6-C ,  7-C ) :   0.7171 B(  6-C , 13-H ) :   1.3395
B(  7-C ,  8-C ) :   0.4986 B(  7-C , 12-H ) :   1.4252 B(  7-C , 13-H ) :  -0.1723
B(  8-C ,  9-H ) :   0.9502 B(  8-C , 10-H ) :   1.0504 B(  8-C , 11-H ) :   1.0497
B(  8-C , 12-H ) :  -0.1708 B( 15-O , 16-C ) :   0.8895 B( 15-O , 19-O ) :   0.1317
B( 16-C , 17-H ) :   0.8963 B( 16-C , 18-H ) :   0.8968 B( 16-C , 19-O ) :   0.8571

Dispersion correction           -0.006919388
FINAL SINGLE POINT ENERGY      -537.228653793208

DIPOLE MOMENT
-------------

Method             : SCF
Type of density    : Electron Density
Multiplicity       :   2
Irrep              :   0
Energy             :  -537.2217344053676698 Eh
Relativity type    :
Basis              : AO
                                X                 Y                 Z
Electronic contribution:    -13.086860003      -0.631411148      -0.000042875
Nuclear contribution   :     13.204705509       0.674639604      -0.000147023
                        -----------------------------------------
Total Dipole Moment    :      0.117845507       0.043228456      -0.000189898
                        -----------------------------------------
Magnitude (a.u.)       :      0.125524097
Magnitude (Debye)      :      0.319056898

Rotational constants in cm-1:             0.088323             0.016345             0.013866
Rotational constants in MHz :          2647.863415           489.996572           415.683402

                             ****ORCA TERMINATED NORMALLY****
TOTAL RUN TIME: 0 days 0 hours 5 minutes 25 seconds 575 msec
