                         Program Version 6.0.0  -   RELEASE  -
|  1> !r2SCAN aug-cc-pVTZ d3 TightSCF SlowConv RIJCOSX defgrid2
|  2>
|  3> %pal
|  4> nprocs 4
|  5> end
|  6>
|  7> %scf
|  8> MaxIter 1500
|  9> end
| 10>
| 11> %maxcore 3000
| 12>
| 13> !CPCM
| 14> %cpcm smd true
| 15> SMDsolvent "MeCN"
| 16> surfacetype gepol_ses
| 17> rsolv 2.19
| 18> end
| 19>
| 20> * xyz 0 1
| 21> C           0.21548830233766     -1.31254052777573      0.00010422762952
| 22> C           1.59988954372279     -1.21584408900209     -0.00004926404309
| 23> C           2.20799859707677      0.04926876567316     -0.00017056079371
| 24> C           1.41929623512531      1.20975167076323     -0.00015034385102
| 25> C           0.03428838131423      1.10376838714684      0.00000853976851
| 26> C          -0.57189434190993     -0.15685634129961      0.00012888388170
| 27> C          -2.05244741323264     -0.32717869220259      0.00024717867959
| 28> O          -2.60855273307034     -1.39562203145168      0.00027570374344
| 29> O          -2.69833688538420      0.84120384412168      0.00023595438148
| 30> C          -4.11294581717618      0.76544881509859      0.00031914102461
| 31> H          -4.47359030585060      0.23317558937230     -0.89509819147298
| 32> H          -4.47329861249430      1.80336428589702      0.00085057660351
| 33> H          -4.47344996909725      0.23226341742374      0.89524607056349
| 34> H          -0.58911726931978      1.99981071426323      0.00001933079670
| 35> H           1.90124452922407      2.19015192252547     -0.00025667551397
| 36> C           3.63651162843124      0.15662159321331     -0.00028047012477
| 37> N           4.79247297713842      0.24396014896989      0.00010497590390
| 38> H           2.22105451043260     -2.11448267300194     -0.00006713475520
| 39> H          -0.28337085726787     -2.28467319973482      0.00020605757830
| 40> *
| 41>
| 42>                          ****END OF INPUT****

CARTESIAN COORDINATES (ANGSTROEM)
---------------------------------
  C      0.215488   -1.312541    0.000104
  C      1.599890   -1.215844   -0.000049
  C      2.207999    0.049269   -0.000171
  C      1.419296    1.209752   -0.000150
  C      0.034288    1.103768    0.000009
  C     -0.571894   -0.156856    0.000129
  C     -2.052447   -0.327179    0.000247
  O     -2.608553   -1.395622    0.000276
  O     -2.698337    0.841204    0.000236
  C     -4.112946    0.765449    0.000319
  H     -4.473590    0.233176   -0.895098
  H     -4.473299    1.803364    0.000851
  H     -4.473450    0.232263    0.895246
  H     -0.589117    1.999811    0.000019
  H      1.901245    2.190152   -0.000257
  C      3.636512    0.156622   -0.000280
  N      4.792473    0.243960    0.000105
  H      2.221055   -2.114483   -0.000067
  H     -0.283371   -2.284673    0.000206

 Total Charge           Charge          ....    0
 Multiplicity           Mult            ....    1
 Number of Electrons    NEL             ....   84
 Basis Dimension        Dim             ....  713

ORBITAL ENERGIES
----------------

  NO   OCC          E(Eh)            E(eV)
   0   2.0000     -19.011626      -517.3326
   1   2.0000     -18.950495      -515.6692
   2   2.0000     -14.175782      -385.7426
   3   2.0000     -10.169929      -276.7378
   4   2.0000     -10.098589      -274.7966
   5   2.0000     -10.094147      -274.6757
   6   2.0000     -10.083069      -274.3743
   7   2.0000     -10.074833      -274.1501
   8   2.0000     -10.069670      -274.0097
   9   2.0000     -10.069579      -274.0072
  10   2.0000     -10.064242      -273.8620
  11   2.0000     -10.062996      -273.8280
  12   2.0000      -1.084876       -29.5210
  13   2.0000      -0.995004       -27.0754
  14   2.0000      -0.891113       -24.2484
  15   2.0000      -0.852426       -23.1957
  16   2.0000      -0.771529       -20.9944
  17   2.0000      -0.739233       -20.1155
  18   2.0000      -0.701574       -19.0908
  19   2.0000      -0.635749       -17.2996
  20   2.0000      -0.599058       -16.3012
  21   2.0000      -0.546864       -14.8809
  22   2.0000      -0.532811       -14.4985
  23   2.0000      -0.503641       -13.7048
  24   2.0000      -0.463740       -12.6190
  25   2.0000      -0.458009       -12.4630
  26   2.0000      -0.438054       -11.9200
  27   2.0000      -0.426576       -11.6077
  28   2.0000      -0.409158       -11.1338
  29   2.0000      -0.402532       -10.9534
  30   2.0000      -0.392502       -10.6805
  31   2.0000      -0.372144       -10.1266
  32   2.0000      -0.367880       -10.0105
  33   2.0000      -0.347764        -9.4631
  34   2.0000      -0.342895        -9.3307
  35   2.0000      -0.333758        -9.0820
  36   2.0000      -0.328149        -8.9294
  37   2.0000      -0.317841        -8.6489
  38   2.0000      -0.284202        -7.7335
  39   2.0000      -0.261039        -7.1032
  40   2.0000      -0.259182        -7.0527
  41   2.0000      -0.257802        -7.0152
  42   0.0000      -0.106728        -2.9042
  43   0.0000      -0.057034        -1.5520
  44   0.0000      -0.017995        -0.4897
  45   0.0000      -0.011983        -0.3261
  46   0.0000       0.002500         0.0680

MULLIKEN ATOMIC CHARGES
-----------------------
   0 C :   -1.103827
   1 C :   -1.126502
   2 C :    1.866082
   3 C :   -1.320506
   4 C :   -0.252281
   5 C :    1.930027
   6 C :    0.869203
   7 O :   -0.916221
   8 O :   -0.297267
   9 C :   -0.593402
  10 H :    0.261130
  11 H :    0.232564
  12 H :    0.261477
  13 H :    0.156404
  14 H :    0.041846
  15 C :    0.728754
  16 N :   -0.840508
  17 H :    0.057953
  18 H :    0.045076
Sum of atomic charges:    0.0000000

LOEWDIN ATOMIC CHARGES
----------------------
   0 C :    0.220975
   1 C :    0.226201
   2 C :   -0.192131
   3 C :    0.225454
   4 C :    0.228031
   5 C :   -0.137681
   6 C :   -0.844646
   7 O :    0.493504
   8 O :    0.589094
   9 C :    0.347894
  10 H :   -0.170658
  11 H :   -0.170969
  12 H :   -0.170718
  13 H :   -0.173848
  14 H :   -0.151478
  15 C :   -0.237802
  16 N :    0.242127
  17 H :   -0.151553
  18 H :   -0.171796

  Mayer bond orders larger than 0.100000
B(  0-C ,  1-C ) :   1.6238 B(  0-C ,  3-C ) :   0.2461 B(  0-C ,  4-C ) :  -0.7787
B(  0-C ,  6-C ) :   0.4185 B(  0-C , 15-C ) :  -0.2099 B(  0-C , 18-H ) :   1.2555
B(  1-C ,  3-C ) :  -0.1650 B(  1-C ,  4-C ) :   0.1394 B(  1-C ,  5-C ) :  -0.3422
B(  1-C ,  6-C ) :  -0.1323 B(  1-C , 15-C ) :   0.3807 B(  1-C , 16-N ) :   0.1030
B(  1-C , 17-H ) :   1.3629 B(  2-C ,  4-C ) :   0.2312 B(  2-C ,  6-C ) :   0.2246
B(  2-C , 14-H ) :  -0.3356 B(  2-C , 15-C ) :   0.6139 B(  2-C , 16-N ) :   0.3804
B(  2-C , 17-H ) :  -0.3121 B(  3-C ,  4-C ) :   1.0657 B(  3-C ,  5-C ) :  -0.2659
B(  3-C , 14-H ) :   1.4205 B(  3-C , 15-C ) :   0.4161 B(  3-C , 16-N ) :   0.1155
B(  4-C ,  5-C ) :   0.4091 B(  4-C ,  6-C ) :   0.1431 B(  4-C ,  8-O ) :  -0.1153
B(  4-C , 13-H ) :   1.2336 B(  4-C , 15-C ) :  -0.2483 B(  5-C ,  6-C ) :   0.1587
B(  5-C ,  8-O ) :   0.2510 B(  5-C , 13-H ) :  -0.2235 B(  5-C , 15-C ) :   0.4267
B(  5-C , 17-H ) :  -0.1107 B(  5-C , 18-H ) :  -0.2380 B(  6-C ,  7-O ) :   0.9921
B(  6-C ,  8-O ) :   0.8478 B(  6-C , 15-C ) :   0.1291 B(  7-O , 18-H ) :   0.1514
B(  8-O ,  9-C ) :   0.8584 B(  9-C , 10-H ) :   0.9102 B(  9-C , 11-H ) :   0.9613
B(  9-C , 12-H ) :   0.9100 B( 13-H , 18-H ) :   0.1842 B( 14-H , 17-H ) :   0.1489
B( 15-C , 16-N ) :   1.4301

Dispersion correction           -0.006218626
FINAL SINGLE POINT ENERGY      -552.293322833952

DIPOLE MOMENT
-------------

Method             : SCF
Type of density    : Electron Density
Multiplicity       :   1
Irrep              :   0
Energy             :  -552.2871042078359096 Eh
Relativity type    :
Basis              : AO
                                X                 Y                 Z
Electronic contribution:      7.510133754      -1.155630194      -0.000309214
Nuclear contribution   :     -9.614807611       1.929707877       0.000342352
                        -----------------------------------------
Total Dipole Moment    :     -2.104673857       0.774077683       0.000033139
                        -----------------------------------------
Magnitude (a.u.)       :      2.242509377
Magnitude (Debye)      :      5.700005849

Rotational constants in cm-1:             0.115026             0.014673             0.013046
Rotational constants in MHz :          3448.390341           439.899337           391.107079

                             ****ORCA TERMINATED NORMALLY****
TOTAL RUN TIME: 0 days 0 hours 3 minutes 36 seconds 612 msec
