                         Program Version 6.0.0  -   RELEASE  -
|  1> !PBE0 opt aug-cc-pVTZ d3 TightSCF SlowConv RIJCOSX defgrid2
|  2>
|  3> %pal
|  4> nprocs 8
|  5> end
|  6>
|  7> %scf
|  8> MaxIter 1500
|  9> end
| 10>
| 11> %maxcore 3500
| 12>
| 13> !CPCM
| 14> %cpcm smd true
| 15> SMDsolvent "MeCN"
| 16> surfacetype gepol_ses
| 17> rsolv 2.19
| 18> end
| 19>
| 20> * xyz 0 1
| 21> C          -0.22997754219743     -1.20609091856311     -0.00046087004095
| 22> C           1.16128384069195     -1.20031253591911      0.00041394587123
| 23> C           1.87254503831811     -0.00003037040882      0.00072012391754
| 24> C           1.16131377140118      1.20026930808148      0.00041360790641
| 25> C          -0.22994707632405      1.20608173416170     -0.00046177829750
| 26> C          -0.95218511536342      0.00000427823419     -0.00003761551285
| 27> N          -2.33340895991450      0.00002157595282      0.04653779431621
| 28> H          -2.79855452143895      0.84821355690402     -0.25483389378867
| 29> H          -2.79857532928795     -0.84816111010491     -0.25482834496791
| 30> H          -0.77344381556999      2.15676174884881      0.00298430668171
| 31> H           1.69817818740019      2.15419904894576     -0.00079679497611
| 32> H           2.96571339060225     -0.00004426352233      0.00028554339021
| 33> H           1.69812535441562     -2.15425546581862     -0.00079688995407
| 34> H          -0.77349762273302     -2.15675758679187      0.00298456545474
| 35> *
| 36>
| 37>                          ****END OF INPUT****
 Total Charge           Charge          ....    0
 Multiplicity           Mult            ....    1
 Number of Electrons    NEL             ....   50
Dispersion correction           -0.011429003
FINAL SINGLE POINT ENERGY      -287.389947309115
Dispersion correction             ... done (  0.0 sec)
Dispersion correction           -0.011467091
FINAL SINGLE POINT ENERGY      -287.390577093123
Dispersion correction             ... done (  0.0 sec)
Dispersion correction           -0.011470452
FINAL SINGLE POINT ENERGY      -287.390593410731
Dispersion correction             ... done (  0.0 sec)
FINAL SINGLE POINT ENERGY      -287.390603478930
Dispersion correction             ... done (  0.0 sec)
Dispersion correction           -0.011473157
FINAL SINGLE POINT ENERGY      -287.390607603590
Dispersion correction             ... done (  0.1 sec)
Dispersion correction           -0.011472497
FINAL SINGLE POINT ENERGY      -287.390606916497
Dispersion correction             ... done (  0.0 sec)
                    ***********************HURRAY********************

CARTESIAN COORDINATES (ANGSTROEM)
---------------------------------
  C     -0.229832   -1.201943    0.003514
  C      1.155436   -1.195857    0.000460
  C      1.863060   -0.000030    0.000076
  C      1.155465    1.195813    0.000462
  C     -0.229802    1.201935    0.003504
  C     -0.945593    0.000005    0.006215
  N     -2.326215    0.000019    0.067314
  H     -2.777008    0.836832   -0.267326
  H     -2.777025   -0.836777   -0.267346
  H     -0.770550    2.142175    0.003442
  H      1.687219    2.140483   -0.003998
  H      2.945852   -0.000044   -0.003643
  H      1.687164   -2.140542   -0.004008
  H     -0.770600   -2.142169    0.003459

 Multiplicity           Mult            ....    1
 Number of Electrons    NEL             ....   50
 Basis Dimension        Dim             ....  483

ORBITAL ENERGIES
----------------

  NO   OCC          E(Eh)            E(eV)
   0   2.0000     -14.383462      -391.3939
   1   2.0000     -10.267065      -279.3811
   2   2.0000     -10.225268      -278.2437
   3   2.0000     -10.225245      -278.2430
   4   2.0000     -10.218778      -278.0671
   5   2.0000     -10.218771      -278.0669
   6   2.0000     -10.214948      -277.9629
   7   2.0000      -0.946115       -25.7451
   8   2.0000      -0.864224       -23.5167
   9   2.0000      -0.767894       -20.8955
  10   2.0000      -0.746929       -20.3250
  11   2.0000      -0.629297       -17.1240
  12   2.0000      -0.614853       -16.7310
  13   2.0000      -0.539461       -14.6795
  14   2.0000      -0.517886       -14.0924
  15   2.0000      -0.488188       -13.2843
  16   2.0000      -0.441893       -12.0245
  17   2.0000      -0.438145       -11.9225
  18   2.0000      -0.426520       -11.6062
  19   2.0000      -0.405228       -11.0268
  20   2.0000      -0.366122        -9.9627
  21   2.0000      -0.346355        -9.4248
  22   2.0000      -0.330556        -8.9949
  23   2.0000      -0.267808        -7.2874
  24   2.0000      -0.219875        -5.9831
  25   0.0000      -0.008014        -0.2181
  26   0.0000       0.002273         0.0619
  27   0.0000       0.006253         0.1702
  28   0.0000       0.015174         0.4129
  29   0.0000       0.019264         0.5242

MULLIKEN ATOMIC CHARGES
-----------------------
   0 C :   -0.915467
   1 C :   -0.452926
   2 C :   -0.662663
   3 C :   -0.454771
   4 C :   -0.914487
   5 C :    1.079640
   6 N :   -0.585292
   7 H :    0.063941
   8 H :    0.063704
   9 H :    0.608730
  10 H :    0.473612
  11 H :    0.612480
  12 H :    0.474854
  13 H :    0.608646
Sum of atomic charges:    0.0000000

LOEWDIN ATOMIC CHARGES
----------------------
   0 C :    0.200284
   1 C :    0.162140
   2 C :    0.163612
   3 C :    0.162138
   4 C :    0.200287
   5 C :   -0.275116
   6 N :    0.860682
   7 H :   -0.291811
   8 H :   -0.291811
   9 H :   -0.173280
  10 H :   -0.177950
  11 H :   -0.187945
  12 H :   -0.177948
  13 H :   -0.173281

  Mayer bond orders larger than 0.100000
B(  0-C ,  1-C ) :   1.3449 B(  0-C ,  2-C ) :   0.2442 B(  0-C ,  4-C ) :   0.4163
B(  0-C ,  5-C ) :   0.8427 B(  0-C , 13-H ) :   0.2053 B(  1-C ,  2-C ) :   1.2666
B(  1-C ,  3-C ) :  -0.1068 B(  1-C ,  5-C ) :  -0.2604 B(  1-C , 12-H ) :   0.6728
B(  2-C ,  3-C ) :   1.2669 B(  2-C ,  4-C ) :   0.2436 B(  2-C , 11-H ) :   0.3802
B(  3-C ,  4-C ) :   1.3456 B(  3-C ,  5-C ) :  -0.2601 B(  3-C , 10-H ) :   0.6744
B(  4-C ,  5-C ) :   0.8458 B(  4-C ,  9-H ) :   0.2048 B(  5-C ,  6-N ) :   0.5519
B(  5-C ,  9-H ) :   0.1139 B(  5-C , 13-H ) :   0.1135 B(  6-N ,  7-H ) :   1.0717
B(  6-N ,  8-H ) :   1.0723

Dispersion correction           -0.011472287
FINAL SINGLE POINT ENERGY      -287.390607737343

DIPOLE MOMENT
-------------

Method             : SCF
Type of density    : Electron Density
Multiplicity       :   1
Irrep              :   0
Energy             :  -287.3791354504303399 Eh
Relativity type    :
Basis              : AO
                                X                 Y                 Z
Electronic contribution:     -0.047083177       0.000001198       0.049488717
Nuclear contribution   :     -0.732142991       0.000010229      -0.545932877
                        -----------------------------------------
Total Dipole Moment    :     -0.779226168       0.000011427      -0.496444160
                        -----------------------------------------
Magnitude (a.u.)       :      0.923931937
Magnitude (Debye)      :      2.348448351

Rotational constants in cm-1:             0.189078             0.087345             0.059831
Rotational constants in MHz :          5668.430665          2618.543736          1793.690874

                             ****ORCA TERMINATED NORMALLY****
TOTAL RUN TIME: 0 days 0 hours 17 minutes 38 seconds 966 msec
