                         Program Version 6.0.0  -   RELEASE  -
|  1> !PBE0 aug-cc-pVTZ d3 TightSCF SlowConv RIJCOSX defgrid2
|  2>
|  3> %pal
|  4> nprocs 4
|  5> end
|  6>
|  7> %scf
|  8> MaxIter 1500
|  9> end
| 10>
| 11> %maxcore 3000
| 12>
| 13> !CPCM
| 14> %cpcm smd true
| 15> SMDsolvent "MeCN"
| 16> surfacetype gepol_ses
| 17> rsolv 2.19
| 18> end
| 19>
| 20> * xyz 1 2
| 21> C          -0.71556742602470      1.41147124580485      0.02484351393648
| 22> C          -1.89485758612148      0.71255037175673      0.02185452188149
| 23> C          -1.89490487228878     -0.71243606709823     -0.02184786737407
| 24> C          -0.71566014748267     -1.41143906203058     -0.02485534134414
| 25> C           0.52378178615536     -0.72580780509331      0.02738184725448
| 26> N           1.67880733273848     -1.40323460000137      0.12447426704281
| 27> H           2.54767175517770     -0.96635780966427      0.41412881989197
| 28> H           1.66526481618075     -2.41979612436391      0.15230682810719
| 29> C           0.52382964238816      0.72575250329787     -0.02740743022416
| 30> N           1.67888414838919      1.40311105146924     -0.12454542200936
| 31> H           2.54775915845719      0.96616221930099     -0.41405341714921
| 32> H           1.66540525229882      2.41967119375531     -0.15237138517056
| 33> H          -0.71326686493866     -2.50469578941709     -0.02461886159088
| 34> H          -2.84575934012086     -1.25136953209334     -0.03502634075607
| 35> H          -2.84567429105713      1.25154580034325      0.03504989002360
| 36> H          -0.71309356375136      2.50472700403386      0.02461197748042
| 37> *
| 38>
| 39>                          ****END OF INPUT****

CARTESIAN COORDINATES (ANGSTROEM)
---------------------------------
  C     -0.715567    1.411471    0.024844
  C     -1.894858    0.712550    0.021855
  C     -1.894905   -0.712436   -0.021848
  C     -0.715660   -1.411439   -0.024855
  C      0.523782   -0.725808    0.027382
  N      1.678807   -1.403235    0.124474
  H      2.547672   -0.966358    0.414129
  H      1.665265   -2.419796    0.152307
  C      0.523830    0.725753   -0.027407
  N      1.678884    1.403111   -0.124545
  H      2.547759    0.966162   -0.414053
  H      1.665405    2.419671   -0.152371
  H     -0.713267   -2.504696   -0.024619
  H     -2.845759   -1.251370   -0.035026
  H     -2.845674    1.251546    0.035050
  H     -0.713094    2.504727    0.024612

 Total Charge           Charge          ....    1
 Multiplicity           Mult            ....    2
 Number of Electrons    NEL             ....   57
 Basis Dimension        Dim             ....  552

ORBITAL ENERGIES
----------------
                 SPIN UP ORBITALS
  NO   OCC          E(Eh)            E(eV)
   0   1.0000     -14.452134      -393.2626
   1   1.0000     -14.452111      -393.2619
   2   1.0000     -10.327485      -281.0252
   3   1.0000     -10.327046      -281.0132
   4   1.0000     -10.260541      -279.2035
   5   1.0000     -10.260015      -279.1892
   6   1.0000     -10.254882      -279.0495
   7   1.0000     -10.254849      -279.0486
   8   1.0000      -1.024628       -27.8816
   9   1.0000      -0.981698       -26.7133
  10   1.0000      -0.893198       -24.3051
  11   1.0000      -0.794626       -21.6229
  12   1.0000      -0.779700       -21.2167
  13   1.0000      -0.674868       -18.3641
  14   1.0000      -0.663969       -18.0675
  15   1.0000      -0.602357       -16.3910
  16   1.0000      -0.572638       -15.5823
  17   1.0000      -0.566099       -15.4043
  18   1.0000      -0.533759       -14.5243
  19   1.0000      -0.492396       -13.3988
  20   1.0000      -0.472166       -12.8483
  21   1.0000      -0.470920       -12.8144
  22   1.0000      -0.465979       -12.6799
  23   1.0000      -0.404295       -11.0014
  24   1.0000      -0.400592       -10.9007
  25   1.0000      -0.383100       -10.4247
  26   1.0000      -0.368987       -10.0406
  27   1.0000      -0.279074        -7.5940
  28   1.0000      -0.241342        -6.5672
  29   0.0000      -0.031550        -0.8585
  30   0.0000      -0.027562        -0.7500
  31   0.0000      -0.005274        -0.1435
  32   0.0000       0.008129         0.2212
  33   0.0000       0.011740         0.3195

                 SPIN DOWN ORBITALS
  NO   OCC          E(Eh)            E(eV)
   0   1.0000     -14.446521      -393.1098
   1   1.0000     -14.446495      -393.1091
   2   1.0000     -10.324798      -280.9520
   3   1.0000     -10.324386      -280.9408
   4   1.0000     -10.258629      -279.1515
   5   1.0000     -10.258130      -279.1379
   6   1.0000     -10.255326      -279.0616
   7   1.0000     -10.255297      -279.0608
   8   1.0000      -1.014109       -27.5953
   9   1.0000      -0.970402       -26.4060
  10   1.0000      -0.886393       -24.1200
  11   1.0000      -0.791750       -21.5446
  12   1.0000      -0.766785       -20.8653
  13   1.0000      -0.670983       -18.2584
  14   1.0000      -0.658771       -17.9261
  15   1.0000      -0.598460       -16.2849
  16   1.0000      -0.570171       -15.5151
  17   1.0000      -0.562758       -15.3134
  18   1.0000      -0.529385       -14.4053
  19   1.0000      -0.489386       -13.3169
  20   1.0000      -0.467500       -12.7213
  21   1.0000      -0.465000       -12.6533
  22   1.0000      -0.445468       -12.1218
  23   1.0000      -0.402547       -10.9539
  24   1.0000      -0.384538       -10.4638
  25   1.0000      -0.367328        -9.9955
  26   1.0000      -0.345095        -9.3905
  27   1.0000      -0.265814        -7.2332
  28   0.0000      -0.150370        -4.0918
  29   0.0000      -0.017409        -0.4737
  30   0.0000      -0.003691        -0.1004
  31   0.0000      -0.000372        -0.0101
  32   0.0000       0.009496         0.2584

MULLIKEN ATOMIC CHARGES AND SPIN POPULATIONS
--------------------------------------------
   0 C :   -0.781965   -0.059067
   1 C :   -0.499439    0.127403
   2 C :   -0.497749    0.127536
   3 C :   -0.784458   -0.059248
   4 C :    0.977284    0.185679
   5 N :   -0.460178    0.249044
   6 H :    0.106316    0.000899
   7 H :    0.074948   -0.005135
   8 C :    0.978786    0.185604
   9 N :   -0.460481    0.249185
  10 H :    0.105883    0.000885
  11 H :    0.074843   -0.005137
  12 H :    0.491928    0.000168
  13 H :    0.592323    0.001004
  14 H :    0.591596    0.001016
  15 H :    0.490362    0.000163
Sum of atomic charges         :    1.0000000

LOEWDIN ATOMIC CHARGES AND SPIN POPULATIONS
-------------------------------------------
   0 C :    0.244749    0.034098
   1 C :    0.222718    0.086981
   2 C :    0.222710    0.087045
   3 C :    0.244711    0.034062
   4 C :   -0.154685    0.140341
   5 N :    0.934861    0.178600
   6 H :   -0.233656    0.025045
   7 H :   -0.215381    0.022449
   8 C :   -0.154618    0.140325
   9 N :    0.934957    0.178665
  10 H :   -0.233583    0.025055
  11 H :   -0.215383    0.022463
  12 H :   -0.146653   -0.003426
  13 H :   -0.152050    0.015867
  14 H :   -0.152054    0.015843
  15 H :   -0.146643   -0.003411

  Mayer bond orders larger than 0.100000
B(  0-C ,  1-C ) :   1.5578 B(  0-C ,  8-C ) :   0.8470 B(  0-C ,  9-N ) :  -0.1260
B(  0-C , 15-H ) :   0.4541 B(  1-C ,  2-C ) :   1.1639 B(  1-C ,  8-C ) :  -0.1535
B(  1-C , 14-H ) :   0.4421 B(  2-C ,  3-C ) :   1.5568 B(  2-C ,  4-C ) :  -0.1536
B(  2-C , 13-H ) :   0.4409 B(  3-C ,  4-C ) :   0.8461 B(  3-C ,  5-N ) :  -0.1258
B(  3-C , 12-H ) :   0.4518 B(  4-C ,  5-N ) :   0.6465 B(  4-C ,  8-C ) :   0.7361
B(  5-N ,  6-H ) :   1.0801 B(  5-N ,  7-H ) :   1.1256 B(  8-C ,  9-N ) :   0.6457
B(  9-N , 10-H ) :   1.0809 B(  9-N , 11-H ) :   1.1255

Dispersion correction           -0.013809955
FINAL SINGLE POINT ENERGY      -342.540624863952

DIPOLE MOMENT
-------------

Method             : SCF
Type of density    : Electron Density
Multiplicity       :   2
Irrep              :   0
Energy             :  -342.5268149090257452 Eh
Relativity type    :
Basis              : AO
                                X                 Y                 Z
Electronic contribution:      0.740326794       0.000507299      -0.000294603
Nuclear contribution   :      1.369385413      -0.000054655       0.000118438
                        -----------------------------------------
Total Dipole Moment    :      2.109712206       0.000452644      -0.000176165
                        -----------------------------------------
Magnitude (a.u.)       :      2.109712262
Magnitude (Debye)      :      5.362462409

Rotational constants in cm-1:             0.106540             0.076353             0.044639
Rotational constants in MHz :          3194.002568          2289.017521          1338.230325

                             ****ORCA TERMINATED NORMALLY****
TOTAL RUN TIME: 0 days 0 hours 4 minutes 57 seconds 214 msec
