                         Program Version 6.0.0  -   RELEASE  -
|  1> !r2SCAN aug-cc-pVTZ d3 TightSCF SlowConv RIJCOSX defgrid2
|  2>
|  3> %pal
|  4> nprocs 15
|  5> end
|  6>
|  7> %scf
|  8> MaxIter 1500
|  9> end
| 10>
| 11> %maxcore 3500
| 12>
| 13> !CPCM
| 14> %cpcm smd true
| 15> SMDsolvent "WATER"
| 16> surfacetype gepol_ses
| 17> rsolv 1.40
| 18> end
| 19>
| 20> * xyz -1 2
| 21> C           0.05676834437269     -0.04126375525375     -0.07379470178985
| 22> C           0.04676127079215      1.38639972567344      0.09948592866889
| 23> C           0.00732325322699      2.02650392411858      1.32436257991460
| 24> C          -0.02811199415728      1.28756028332669      2.56763955505213
| 25> C          -0.01950367462772     -0.17671526637425      2.44249972135594
| 26> C           0.02128903830978     -0.81737610319329      1.17794298580176
| 27> C           0.02766320595178     -2.22274936131322      1.12035686382715
| 28> C          -0.00525760141292     -2.98509780735118      2.27563842056320
| 29> C          -0.04596579054487     -2.34934581671190      3.53299210043314
| 30> C          -0.05269695553496     -0.96718770864542      3.60727949422398
| 31> H           0.07307998987984      1.97354439848574     -0.82691927210829
| 32> H          -0.08387968905241     -0.43627556568955      4.56348338899376
| 33> H          -0.07227523191341     -2.95060132238905      4.44937134345183
| 34> H           0.00009741014830     -4.07969694965667      2.21544872655867
| 35> H           0.05965826160228     -2.67423134322413      0.12415494788135
| 36> C          -0.00135605546558      3.52012474646347      1.44205228332186
| 37> H          -0.89947922034870      3.86767983350127      1.98595203666262
| 38> H           0.86028970160146      3.87394551637077      2.03844092282286
| 39> H           0.02673872207916      4.00491399489856      0.45047397160307
| 40> O          -0.06383664808370      1.85761287334880      3.68239612384268
| 41> O           0.09269366317713     -0.59678036638491     -1.19351016008137
| 42> *
| 43>
| 44>                          ****END OF INPUT****

CARTESIAN COORDINATES (ANGSTROEM)
---------------------------------
  C      0.056768   -0.041264   -0.073795
  C      0.046761    1.386400    0.099486
  C      0.007323    2.026504    1.324363
  C     -0.028112    1.287560    2.567640
  C     -0.019504   -0.176715    2.442500
  C      0.021289   -0.817376    1.177943
  C      0.027663   -2.222749    1.120357
  C     -0.005258   -2.985098    2.275638
  C     -0.045966   -2.349346    3.532992
  C     -0.052697   -0.967188    3.607279
  H      0.073080    1.973544   -0.826919
  H     -0.083880   -0.436276    4.563483
  H     -0.072275   -2.950601    4.449371
  H      0.000097   -4.079697    2.215449
  H      0.059658   -2.674231    0.124155
  C     -0.001356    3.520125    1.442052
  H     -0.899479    3.867680    1.985952
  H      0.860290    3.873946    2.038441
  H      0.026739    4.004914    0.450474
  O     -0.063837    1.857613    3.682396
  O      0.092694   -0.596780   -1.193510

 Total Charge           Charge          ....   -1
 Multiplicity           Mult            ....    2
 Number of Electrons    NEL             ....   91
 Basis Dimension        Dim             ....  782

ORBITAL ENERGIES
----------------
                 SPIN UP ORBITALS
  NO   OCC          E(Eh)            E(eV)
   0   1.0000     -18.916826      -514.7530
   1   1.0000     -18.916745      -514.7508
   2   1.0000     -10.088564      -274.5238
   3   1.0000     -10.086028      -274.4548
   4   1.0000     -10.040573      -273.2179
   5   1.0000     -10.038525      -273.1622
   6   1.0000     -10.038432      -273.1596
   7   1.0000     -10.038113      -273.1509
   8   1.0000     -10.037876      -273.1445
   9   1.0000     -10.035566      -273.0816
  10   1.0000     -10.035424      -273.0778
  11   1.0000     -10.024895      -272.7913
  12   1.0000     -10.022319      -272.7212
  13   1.0000      -0.974447       -26.5161
  14   1.0000      -0.972134       -26.4531
  15   1.0000      -0.822767       -22.3886
  16   1.0000      -0.776253       -21.1229
  17   1.0000      -0.718984       -19.5646
  18   1.0000      -0.715597       -19.4724
  19   1.0000      -0.665820       -18.1179
  20   1.0000      -0.625913       -17.0319
  21   1.0000      -0.579938       -15.7809
  22   1.0000      -0.558395       -15.1947
  23   1.0000      -0.521913       -14.2020
  24   1.0000      -0.473663       -12.8890
  25   1.0000      -0.462046       -12.5729
  26   1.0000      -0.433521       -11.7967
  27   1.0000      -0.412457       -11.2235
  28   1.0000      -0.401825       -10.9342
  29   1.0000      -0.391589       -10.6557
  30   1.0000      -0.386552       -10.5186
  31   1.0000      -0.385539       -10.4910
  32   1.0000      -0.368878       -10.0377
  33   1.0000      -0.356478        -9.7003
  34   1.0000      -0.349194        -9.5021
  35   1.0000      -0.347724        -9.4621
  36   1.0000      -0.336039        -9.1441
  37   1.0000      -0.324764        -8.8373
  38   1.0000      -0.311262        -8.4699
  39   1.0000      -0.301895        -8.2150
  40   1.0000      -0.251768        -6.8509
  41   1.0000      -0.238107        -6.4792
  42   1.0000      -0.229303        -6.2396
  43   1.0000      -0.218114        -5.9352
  44   1.0000      -0.208052        -5.6614
  45   1.0000      -0.140137        -3.8133
  46   0.0000      -0.056020        -1.5244
  47   0.0000      -0.036300        -0.9878
  48   0.0000       0.005113         0.1391
  49   0.0000       0.019266         0.5243
  50   0.0000       0.022092         0.6012

                 SPIN DOWN ORBITALS
  NO   OCC          E(Eh)            E(eV)
   0   1.0000     -18.910545      -514.5821
   1   1.0000     -18.910189      -514.5724
   2   1.0000     -10.086371      -274.4641
   3   1.0000     -10.083484      -274.3856
   4   1.0000     -10.038434      -273.1597
   5   1.0000     -10.038166      -273.1524
   6   1.0000     -10.037976      -273.1472
   7   1.0000     -10.037637      -273.1380
   8   1.0000     -10.037239      -273.1271
   9   1.0000     -10.035531      -273.0807
  10   1.0000     -10.035189      -273.0714
  11   1.0000     -10.023548      -272.7546
  12   1.0000     -10.022460      -272.7250
  13   1.0000      -0.964905       -26.2564
  14   1.0000      -0.962284       -26.1851
  15   1.0000      -0.820614       -22.3300
  16   1.0000      -0.770819       -20.9751
  17   1.0000      -0.716601       -19.4997
  18   1.0000      -0.713614       -19.4184
  19   1.0000      -0.661355       -17.9964
  20   1.0000      -0.618756       -16.8372
  21   1.0000      -0.577732       -15.7209
  22   1.0000      -0.555506       -15.1161
  23   1.0000      -0.518669       -14.1137
  24   1.0000      -0.471757       -12.8372
  25   1.0000      -0.458810       -12.4849
  26   1.0000      -0.431215       -11.7340
  27   1.0000      -0.411678       -11.2023
  28   1.0000      -0.388945       -10.5837
  29   1.0000      -0.388633       -10.5753
  30   1.0000      -0.384353       -10.4588
  31   1.0000      -0.383148       -10.4260
  32   1.0000      -0.360658        -9.8140
  33   1.0000      -0.354492        -9.6462
  34   1.0000      -0.346391        -9.4258
  35   1.0000      -0.334873        -9.1124
  36   1.0000      -0.330870        -9.0034
  37   1.0000      -0.313919        -8.5422
  38   1.0000      -0.309943        -8.4340
  39   1.0000      -0.300827        -8.1859
  40   1.0000      -0.234422        -6.3789
  41   1.0000      -0.232739        -6.3331
  42   1.0000      -0.220972        -6.0130
  43   1.0000      -0.213139        -5.7998
  44   1.0000      -0.203002        -5.5240
  45   0.0000      -0.110900        -3.0178
  46   0.0000      -0.047928        -1.3042
  47   0.0000      -0.025087        -0.6827
  48   0.0000       0.006321         0.1720
  49   0.0000       0.020073         0.5462

MULLIKEN ATOMIC CHARGES AND SPIN POPULATIONS
--------------------------------------------
   0 C :    1.205701    0.136150
   1 C :   -0.792596    0.094540
   2 C :    0.458817    0.099107
   3 C :    0.700762    0.153746
   4 C :    1.601744    0.003726
   5 C :    1.267561    0.050733
   6 C :   -1.207257    0.003211
   7 C :   -0.457980    0.034203
   8 C :   -0.451180    0.014525
   9 C :   -1.452818    0.018014
  10 H :    0.035052    0.001744
  11 H :   -0.069042   -0.009839
  12 H :    0.608575   -0.000912
  13 H :    0.568402    0.000545
  14 H :   -0.100801   -0.013212
  15 C :   -0.766027   -0.037009
  16 H :    0.182161    0.011194
  17 H :    0.180793    0.011198
  18 H :    0.161910   -0.001917
  19 O :   -1.328471    0.223578
  20 O :   -1.345305    0.206674
Sum of atomic charges         :   -1.0000000

LOEWDIN ATOMIC CHARGES AND SPIN POPULATIONS
-------------------------------------------
   0 C :   -0.653086    0.119274
   1 C :    0.179485    0.085048
   2 C :   -0.167702    0.102285
   3 C :   -0.621781    0.133289
   4 C :   -0.150003    0.044824
   5 C :   -0.155437    0.045203
   6 C :    0.180812    0.012068
   7 C :    0.189166    0.020745
   8 C :    0.188949    0.017192
   9 C :    0.182604    0.014901
  10 H :   -0.192025    0.009077
  11 H :   -0.196947    0.001543
  12 H :   -0.173954    0.002577
  13 H :   -0.174279    0.004016
  14 H :   -0.196760    0.000272
  15 C :    0.537797    0.014164
  16 H :   -0.166519    0.003724
  17 H :   -0.166459    0.003726
  18 H :   -0.170256   -0.000278
  19 O :    0.380114    0.188578
  20 O :    0.346281    0.177773

  Mayer bond orders larger than 0.100000
B(  0-C ,  1-C ) :   0.6324 B(  0-C ,  5-C ) :   0.2751 B(  0-C ,  6-C ) :   0.5851
B(  0-C ,  8-C ) :   0.1391 B(  0-C ,  9-C ) :  -0.1824 B(  0-C , 10-H ) :  -0.3284
B(  0-C , 12-H ) :   0.1091 B(  0-C , 14-H ) :  -0.1147 B(  0-C , 20-O ) :  -0.3177
B(  1-C ,  2-C ) :   1.1029 B(  1-C ,  3-C ) :  -0.2232 B(  1-C ,  4-C ) :  -0.2773
B(  1-C ,  5-C ) :   0.3847 B(  1-C , 10-H ) :   0.9563 B(  1-C , 15-C ) :  -0.1761
B(  1-C , 20-O ) :   0.2981 B(  2-C ,  3-C ) :   0.6673 B(  2-C ,  4-C ) :   0.6150
B(  2-C ,  5-C ) :  -0.2337 B(  2-C , 10-H ) :  -0.1093 B(  2-C , 15-C ) :   0.3109
B(  2-C , 16-H ) :  -0.1082 B(  2-C , 17-H ) :  -0.1085 B(  2-C , 19-O ) :   0.1611
B(  2-C , 20-O ) :   0.1309 B(  3-C ,  4-C ) :   0.4806 B(  3-C ,  6-C ) :  -0.1816
B(  3-C ,  9-C ) :   0.7210 B(  3-C , 10-H ) :   0.1196 B(  3-C , 15-C ) :   0.2860
B(  4-C ,  5-C ) :   1.0401 B(  4-C ,  6-C ) :  -0.6834 B(  4-C ,  7-C ) :  -0.2935
B(  4-C ,  9-C ) :  -0.7227 B(  4-C , 11-H ) :  -0.2043 B(  4-C , 12-H ) :   0.1009
B(  4-C , 19-O ) :   0.1295 B(  5-C ,  6-C ) :  -0.1600 B(  5-C ,  8-C ) :  -0.1869
B(  5-C ,  9-C ) :  -0.3906 B(  5-C , 10-H ) :   0.1600 B(  5-C , 14-H ) :  -0.1838
B(  5-C , 20-O ) :   0.1781 B(  6-C ,  7-C ) :   1.0677 B(  6-C , 10-H ) :   0.1093
B(  6-C , 13-H ) :  -0.1442 B(  6-C , 14-H ) :   1.3484 B(  7-C ,  8-C ) :   1.0105
B(  7-C ,  9-C ) :   0.1081 B(  7-C , 13-H ) :   0.4083 B(  8-C ,  9-C ) :   1.1393
B(  8-C , 12-H ) :   0.3321 B(  9-C , 11-H ) :   1.2616 B(  9-C , 12-H ) :  -0.1636
B( 10-H , 14-H ) :   0.1646 B( 10-H , 20-O ) :   0.1431 B( 11-H , 19-O ) :   0.2793
B( 14-H , 20-O ) :   0.2877 B( 15-C , 16-H ) :   0.9973 B( 15-C , 17-H ) :   0.9987
B( 15-C , 18-H ) :   1.0248

Dispersion correction           -0.007944534
FINAL SINGLE POINT ENERGY      -574.492671981159

DIPOLE MOMENT
-------------

Method             : SCF
Type of density    : Electron Density
Multiplicity       :   2
Irrep              :   0
Energy             :  -574.4847274474643655 Eh
Relativity type    :
Basis              : AO
                                X                 Y                 Z
Electronic contribution:      0.028142192      -3.874357685      -0.486268211
Nuclear contribution   :     -0.055391570       3.039875839       1.447342045
                        -----------------------------------------
Total Dipole Moment    :     -0.027249378      -0.834481846       0.961073834
                        -----------------------------------------
Magnitude (a.u.)       :      1.273092846
Magnitude (Debye)      :      3.235944849

Rotational constants in cm-1:             0.041924             0.026162             0.016157
Rotational constants in MHz :          1256.843177           784.307239           484.385236

                             ****ORCA TERMINATED NORMALLY****
TOTAL RUN TIME: 0 days 0 hours 4 minutes 41 seconds 52 msec
