                         Program Version 6.0.0  -   RELEASE  -
|  1> !r2SCANh opt aug-cc-pVTZ d3 TightSCF SlowConv RIJCOSX defgrid2
|  2>
|  3> %pal
|  4> nprocs 8
|  5> end
|  6>
|  7> %scf
|  8> MaxIter 1500
|  9> end
| 10>
| 11> %maxcore 3500
| 12>
| 13> !CPCM
| 14> %cpcm smd true
| 15> SMDsolvent "MeCN"
| 16> surfacetype gepol_ses
| 17> rsolv 2.19
| 18> end
| 19>
| 20> * xyz 0 1
| 21>   C           1.35661311001034      0.08242353673381     -0.04830147992154
| 22>   C           0.72528734400678      1.33237499260851      0.02931980589731
| 23>   C          -0.65716684626784      1.42571283843268      0.04302512633637
| 24>   C          -1.44754625606451      0.26653460954742      0.00874339988909
| 25>   C          -0.82552870874395     -0.98502153376474     -0.04770168852446
| 26>   C           0.56772235704198     -1.06633130194090     -0.08313298846277
| 27>   H           1.05006188676245     -2.04577688056741     -0.14354433447971
| 28>   H          -1.41135553820799     -1.90566385705075     -0.07389044457674
| 29>   O          -2.78063858244739      0.45554290336633      0.03645550634804
| 30>   C          -3.62283453444167     -0.66142074230683      0.01078196288993
| 31>   H          -4.65283077190408     -0.27592428677814      0.04102787975267
| 32>   H          -3.48787720923621     -1.25466269618222     -0.91406269819965
| 33>   H          -3.45860421924221     -1.31813897835911      0.88673287617431
| 34>   H          -1.16047233306293      2.39441311771435      0.09515969980486
| 35>   H           1.33361129819119      2.23967992641979      0.08145593960365
| 36>   S           3.13145786803727     -0.06127748319567     -0.01892864657318
| 37>   H           3.36519883556877      0.49010163532289     -1.23773021595817
| 38> *
| 39>
| 40>                          ****END OF INPUT****
 Total Charge           Charge          ....    0
 Multiplicity           Mult            ....    1
 Number of Electrons    NEL             ....   74
Dispersion correction           -0.005692929
FINAL SINGLE POINT ENERGY      -744.879200149498
Dispersion correction             ... done (  0.1 sec)
Dispersion correction           -0.005705900
FINAL SINGLE POINT ENERGY      -744.880562854893
Dispersion correction             ... done (  0.1 sec)
Dispersion correction           -0.005708231
FINAL SINGLE POINT ENERGY      -744.880839788057
Dispersion correction             ... done (  0.1 sec)
FINAL SINGLE POINT ENERGY      -744.881231258662
FINAL SINGLE POINT ENERGY      -744.881449337174
FINAL SINGLE POINT ENERGY      -744.881656634985
FINAL SINGLE POINT ENERGY      -744.881786131740
FINAL SINGLE POINT ENERGY      -744.881820732164
FINAL SINGLE POINT ENERGY      -744.881827082566
Dispersion correction             ... done (  0.1 sec)
Dispersion correction           -0.005708974
FINAL SINGLE POINT ENERGY      -744.881828422391
Dispersion correction             ... done (  0.1 sec)
Dispersion correction           -0.005709004
FINAL SINGLE POINT ENERGY      -744.881828500365
Dispersion correction             ... done (  0.1 sec)
                    ***********************HURRAY********************

CARTESIAN COORDINATES (ANGSTROEM)
---------------------------------
  C      1.337155   -0.005132   -0.213084
  C      0.750127    1.258834   -0.161005
  C     -0.622653    1.385781   -0.069357
  C     -1.438371    0.254920   -0.030587
  C     -0.857041   -1.008685   -0.084726
  C      0.524453   -1.130445   -0.174325
  H      0.960746   -2.120121   -0.213404
  H     -1.459858   -1.903157   -0.057139
  O     -2.770748    0.481932    0.059032
  C     -3.625236   -0.652898    0.100812
  H     -4.636204   -0.263119    0.168518
  H     -3.527365   -1.253038   -0.805372
  H     -3.415805   -1.271773    0.975059
  H     -1.078912    2.365593   -0.027182
  H      1.364576    2.148583   -0.192414
  S      3.091600   -0.236963   -0.332614
  H      3.428633    1.062252   -0.276802

 Multiplicity           Mult            ....    1
 Number of Electrons    NEL             ....   74
 Basis Dimension        Dim             ....  602

ORBITAL ENERGIES
----------------

  NO   OCC          E(Eh)            E(eV)
   0   2.0000     -88.909415     -2419.3482
   1   2.0000     -19.150669      -521.1162
   2   2.0000     -10.218982      -278.0726
   3   2.0000     -10.194620      -277.4097
   4   2.0000     -10.194398      -277.4037
   5   2.0000     -10.165561      -276.6190
   6   2.0000     -10.164905      -276.6011
   7   2.0000     -10.159429      -276.4521
   8   2.0000     -10.158540      -276.4279
   9   2.0000      -7.975015      -217.0112
  10   2.0000      -5.896487      -160.4516
  11   2.0000      -5.892805      -160.3514
  12   2.0000      -5.888711      -160.2400
  13   2.0000      -1.073711       -29.2172
  14   2.0000      -0.869956       -23.6727
  15   2.0000      -0.787553       -21.4304
  16   2.0000      -0.757021       -20.5996
  17   2.0000      -0.720262       -19.5993
  18   2.0000      -0.673471       -18.3261
  19   2.0000      -0.613886       -16.7047
  20   2.0000      -0.580658       -15.8005
  21   2.0000      -0.527297       -14.3485
  22   2.0000      -0.487223       -13.2580
  23   2.0000      -0.461958       -12.5705
  24   2.0000      -0.457290       -12.4435
  25   2.0000      -0.438232       -11.9249
  26   2.0000      -0.417549       -11.3621
  27   2.0000      -0.408553       -11.1173
  28   2.0000      -0.384745       -10.4694
  29   2.0000      -0.381570       -10.3831
  30   2.0000      -0.351052        -9.5526
  31   2.0000      -0.334061        -9.0903
  32   2.0000      -0.332505        -9.0479
  33   2.0000      -0.317296        -8.6341
  34   2.0000      -0.270109        -7.3500
  35   2.0000      -0.259879        -7.0717
  36   2.0000      -0.200866        -5.4658
  37   0.0000      -0.031496        -0.8571
  38   0.0000      -0.013099        -0.3564
  39   0.0000       0.000099         0.0027
  40   0.0000       0.014930         0.4063
  41   0.0000       0.019460         0.5295

MULLIKEN ATOMIC CHARGES
-----------------------
   0 C :    0.948219
   1 C :   -0.732525
   2 C :   -0.916323
   3 C :    1.190730
   4 C :   -0.275230
   5 C :   -0.985488
   6 H :    0.405478
   7 H :    0.450756
   8 O :   -0.679621
   9 C :   -0.703244
  10 H :    0.257749
  11 H :    0.277826
  12 H :    0.276730
  13 H :    0.531847
  14 H :    0.297332
  15 S :   -0.479393
  16 H :    0.135156
Sum of atomic charges:   -0.0000000

LOEWDIN ATOMIC CHARGES
----------------------
   0 C :   -0.595548
   1 C :    0.113497
   2 C :    0.193953
   3 C :   -0.411040
   4 C :    0.195314
   5 C :    0.098282
   6 H :   -0.192986
   7 H :   -0.198931
   8 O :    0.592648
   9 C :    0.355276
  10 H :   -0.178788
  11 H :   -0.171402
  12 H :   -0.170841
  13 H :   -0.177200
  14 H :   -0.194679
  15 S :    1.305513
  16 H :   -0.563071

  Mayer bond orders larger than 0.100000
B(  0-C ,  1-C ) :   0.8947 B(  0-C ,  5-C ) :   1.0349 B(  0-C , 15-S ) :   0.2791
B(  1-C ,  2-C ) :   1.2261 B(  1-C ,  3-C ) :  -0.3389 B(  1-C , 14-H ) :   0.7907
B(  2-C ,  3-C ) :   0.6071 B(  2-C ,  4-C ) :   0.2260 B(  2-C ,  8-O ) :   0.2879
B(  2-C , 13-H ) :   0.3838 B(  3-C ,  4-C ) :   0.9203 B(  3-C ,  5-C ) :  -0.2780
B(  3-C ,  7-H ) :   0.1107 B(  3-C ,  8-O ) :   0.3560 B(  4-C ,  5-C ) :   0.8378
B(  4-C ,  7-H ) :   0.4221 B(  4-C ,  8-O ) :  -0.1461 B(  4-C ,  9-C ) :  -0.1224
B(  5-C ,  6-H ) :   0.6965 B(  5-C , 15-S ) :   0.1467 B(  8-O ,  9-C ) :   1.0085
B(  9-C , 10-H ) :   0.9790 B(  9-C , 11-H ) :   0.9077 B(  9-C , 12-H ) :   0.9091
B( 15-S , 16-H ) :   1.0647

Dispersion correction           -0.005709020
FINAL SINGLE POINT ENERGY      -744.881828295749

DIPOLE MOMENT
-------------

Method             : SCF
Type of density    : Electron Density
Multiplicity       :   1
Irrep              :   0
Energy             :  -744.8761192755032425 Eh
Relativity type    :
Basis              : AO
                                X                 Y                 Z
Electronic contribution:      7.093653481       0.999784363      -0.484037461
Nuclear contribution   :     -7.931306471      -1.149710239       0.556463174
                        -----------------------------------------
Total Dipole Moment    :     -0.837652990      -0.149925875       0.072425713
                        -----------------------------------------
Magnitude (a.u.)       :      0.854040856
Magnitude (Debye)      :      2.170799338

Rotational constants in cm-1:             0.159636             0.023234             0.020361
Rotational constants in MHz :          4785.755018           696.532281           610.398404

                             ****ORCA TERMINATED NORMALLY****
TOTAL RUN TIME: 0 days 0 hours 48 minutes 24 seconds 726 msec
