                         Program Version 6.0.0  -   RELEASE  -
|  1> !B3LYP opt aug-cc-pVTZ d3 TightSCF SlowConv RIJCOSX defgrid2
|  2>
|  3> %pal
|  4> nprocs 8
|  5> end
|  6>
|  7> %scf
|  8> MaxIter 1500
|  9> end
| 10>
| 11> %maxcore 3500
| 12>
| 13> !CPCM
| 14> %cpcm smd true
| 15> SMDsolvent "MeCN"
| 16> surfacetype gepol_ses
| 17> rsolv 2.19
| 18> end
| 19>
| 20> * xyz -1 2
| 21> C          -0.01331421056281      1.21015152275559     -0.00003912841012
| 22> C           1.37407426915828      1.22077182581697      0.00009471803504
| 23> C           2.08268728216500      0.01623593632828      0.00008078293558
| 24> C           1.39800867624770     -1.21018542596672     -0.00005492668248
| 25> C           0.01763373542032     -1.22524409629627     -0.00018246787257
| 26> C          -0.75988843497050     -0.01763719993150     -0.00018385015586
| 27> C          -2.18998893121825     -0.10468719257966     -0.00029823993913
| 28> O          -2.82191384294989     -1.19348424477804     -0.00032077578394
| 29> C          -2.98040993394950      1.20193760901241     -0.00023396308602
| 30> H          -2.77113925068928      1.83311429650402      0.88831166373856
| 31> H          -2.77095660989795      1.83331313895105     -0.88859326031545
| 32> H          -4.05230547218906      0.94280281896802     -0.00037251615162
| 33> H          -0.53955758793286     -2.16627118900373     -0.00028423650614
| 34> H           1.97817281356228     -2.14018774357936     -0.00004958149680
| 35> F           3.44427090335711      0.03016813897025      0.00021925839865
| 36> H           1.93269491180525      2.16366570442592      0.00021265957610
| 37> H          -0.54367651735585      2.16766590040277     -0.00001523628380
| 38> *
| 39>
| 40>                          ****END OF INPUT****
 Total Charge           Charge          ....   -1
 Multiplicity           Mult            ....    2
 Number of Electrons    NEL             ....   73
Dispersion correction           -0.030104755
FINAL SINGLE POINT ENERGY      -484.169725666373
Dispersion correction             ... done (  0.1 sec)
Dispersion correction           -0.030179403
FINAL SINGLE POINT ENERGY      -484.171286133282
Dispersion correction             ... done (  0.1 sec)
Dispersion correction           -0.030199160
FINAL SINGLE POINT ENERGY      -484.171555705616
Dispersion correction             ... done (  0.1 sec)
FINAL SINGLE POINT ENERGY      -484.171610605284
Dispersion correction             ... done (  0.1 sec)
Dispersion correction           -0.030190182
FINAL SINGLE POINT ENERGY      -484.171617114068
Dispersion correction             ... done (  0.1 sec)
Dispersion correction           -0.030187970
FINAL SINGLE POINT ENERGY      -484.171618976497
Dispersion correction             ... done (  0.1 sec)
                    ***********************HURRAY********************

CARTESIAN COORDINATES (ANGSTROEM)
---------------------------------
  C     -0.021817    1.199778   -0.000301
  C      1.359981    1.221199    0.000189
  C      2.056425    0.016051    0.000138
  C      1.400489   -1.210652   -0.000824
  C      0.019802   -1.234820   -0.001210
  C     -0.758642   -0.029516   -0.000383
  C     -2.183751   -0.087803    0.001393
  O     -2.825650   -1.193783    0.004463
  C     -2.971810    1.210331   -0.000642
  H     -2.760614    1.830603    0.877612
  H     -2.756456    1.830536   -0.877926
  H     -4.035844    0.976993   -0.003032
  H     -0.503171   -2.180348   -0.001812
  H      1.975089   -2.128395   -0.001293
  F      3.437538    0.040089    0.001096
  H      1.901521    2.158397    0.000704
  H     -0.548697    2.143471    0.000120

 Multiplicity           Mult            ....    2
 Number of Electrons    NEL             ....   73
 Basis Dimension        Dim             ....  621

ORBITAL ENERGIES
----------------
                 SPIN UP ORBITALS
  NO   OCC          E(Eh)            E(eV)
   0   1.0000     -24.675664      -671.4590
   1   1.0000     -19.043946      -518.2121
   2   1.0000     -10.222342      -278.1641
   3   1.0000     -10.183302      -277.1017
   4   1.0000     -10.158184      -276.4183
   5   1.0000     -10.157958      -276.4121
   6   1.0000     -10.153838      -276.3000
   7   1.0000     -10.149262      -276.1755
   8   1.0000     -10.142564      -275.9932
   9   1.0000     -10.137688      -275.8605
  10   1.0000      -1.199196       -32.6318
  11   1.0000      -0.951907       -25.9027
  12   1.0000      -0.834807       -22.7162
  13   1.0000      -0.741228       -20.1698
  14   1.0000      -0.732014       -19.9191
  15   1.0000      -0.691233       -18.8094
  16   1.0000      -0.609574       -16.5873
  17   1.0000      -0.592656       -16.1270
  18   1.0000      -0.525925       -14.3112
  19   1.0000      -0.520039       -14.1510
  20   1.0000      -0.465235       -12.6597
  21   1.0000      -0.451844       -12.2953
  22   1.0000      -0.438830       -11.9412
  23   1.0000      -0.423471       -11.5232
  24   1.0000      -0.407262       -11.0822
  25   1.0000      -0.404459       -11.0059
  26   1.0000      -0.392065       -10.6686
  27   1.0000      -0.377676       -10.2771
  28   1.0000      -0.357339        -9.7237
  29   1.0000      -0.349085        -9.4991
  30   1.0000      -0.341960        -9.3052
  31   1.0000      -0.312938        -8.5155
  32   1.0000      -0.310826        -8.4580
  33   1.0000      -0.250014        -6.8032
  34   1.0000      -0.231544        -6.3006
  35   1.0000      -0.205968        -5.6047
  36   1.0000      -0.092219        -2.5094
  37   0.0000      -0.000562        -0.0153
  38   0.0000      -0.000101        -0.0027
  39   0.0000       0.012713         0.3460
  40   0.0000       0.016840         0.4582
  41   0.0000       0.028658         0.7798

                 SPIN DOWN ORBITALS
  NO   OCC          E(Eh)            E(eV)
   0   1.0000     -24.674849      -671.4368
   1   1.0000     -19.038174      -518.0550
   2   1.0000     -10.217887      -278.0428
   3   1.0000     -10.178916      -276.9824
   4   1.0000     -10.159453      -276.4528
   5   1.0000     -10.159097      -276.4431
   6   1.0000     -10.151608      -276.2393
   7   1.0000     -10.146674      -276.1050
   8   1.0000     -10.141690      -275.9694
   9   1.0000     -10.138040      -275.8701
  10   1.0000      -1.197180       -32.5769
  11   1.0000      -0.940682       -25.5972
  12   1.0000      -0.831080       -22.6148
  13   1.0000      -0.735537       -20.0150
  14   1.0000      -0.728109       -19.8128
  15   1.0000      -0.688483       -18.7346
  16   1.0000      -0.601977       -16.3806
  17   1.0000      -0.590363       -16.0646
  18   1.0000      -0.523041       -14.2327
  19   1.0000      -0.515765       -14.0347
  20   1.0000      -0.463841       -12.6218
  21   1.0000      -0.443749       -12.0750
  22   1.0000      -0.434709       -11.8290
  23   1.0000      -0.421969       -11.4824
  24   1.0000      -0.406704       -11.0670
  25   1.0000      -0.394840       -10.7441
  26   1.0000      -0.389978       -10.6119
  27   1.0000      -0.376157       -10.2357
  28   1.0000      -0.354046        -9.6341
  29   1.0000      -0.340121        -9.2552
  30   1.0000      -0.339129        -9.2282
  31   1.0000      -0.311400        -8.4736
  32   1.0000      -0.286379        -7.7928
  33   1.0000      -0.241529        -6.5723
  34   1.0000      -0.210366        -5.7243
  35   1.0000      -0.200829        -5.4648
  36   0.0000      -0.019790        -0.5385
  37   0.0000      -0.000143        -0.0039
  38   0.0000       0.004359         0.1186
  39   0.0000       0.012616         0.3433
  40   0.0000       0.016595         0.4516

MULLIKEN ATOMIC CHARGES AND SPIN POPULATIONS
--------------------------------------------
   0 C :   -0.455624    0.197849
   1 C :   -0.873483   -0.080867
   2 C :    0.633341    0.251766
   3 C :   -0.750494   -0.082060
   4 C :   -0.894450    0.219140
   5 C :    1.627033    0.062702
   6 C :    0.402548    0.231914
   7 O :   -1.097409    0.223018
   8 C :   -0.641550   -0.020309
   9 H :    0.217672    0.011707
  10 H :    0.218353    0.011578
  11 H :    0.150391    0.000433
  12 H :    0.161937   -0.022404
  13 H :    0.405073    0.000336
  14 F :   -0.566231    0.012157
  15 H :    0.411078    0.002108
  16 H :    0.051816   -0.019068
Sum of atomic charges         :   -1.0000000

LOEWDIN ATOMIC CHARGES AND SPIN POPULATIONS
-------------------------------------------
   0 C :    0.152114    0.086192
   1 C :    0.138159    0.027062
   2 C :   -0.562711    0.125679
   3 C :    0.132257    0.027038
   4 C :    0.141247    0.094638
   5 C :   -0.206559    0.114797
   6 C :   -0.663567    0.193184
   7 O :    0.312644    0.207110
   8 C :    0.495064    0.038047
   9 H :   -0.184174    0.009582
  10 H :   -0.184382    0.009527
  11 H :   -0.206676   -0.000640
  12 H :   -0.221920    0.022673
  13 H :   -0.193364   -0.004966
  14 F :    0.455302    0.034805
  15 H :   -0.192970   -0.004027
  16 H :   -0.210465    0.019297

  Mayer bond orders larger than 0.100000
B(  0-C ,  1-C ) :   1.0322 B(  0-C ,  2-C ) :  -0.2180 B(  0-C ,  3-C ) :  -0.1365
B(  0-C ,  4-C ) :  -0.3502 B(  0-C ,  5-C ) :   0.2082 B(  0-C ,  6-C ) :   0.2378
B(  0-C , 12-H ) :   0.1107 B(  0-C , 16-H ) :   1.3913 B(  1-C ,  2-C ) :   1.3173
B(  1-C ,  3-C ) :   0.2916 B(  1-C ,  5-C ) :   0.1588 B(  1-C , 14-F ) :   0.1775
B(  1-C , 15-H ) :   0.5875 B(  2-C ,  3-C ) :   1.3399 B(  2-C ,  4-C ) :  -0.2686
B(  2-C ,  6-C ) :   0.1071 B(  2-C , 14-F ) :   0.1747 B(  3-C ,  4-C ) :   1.3834
B(  3-C , 13-H ) :   0.6004 B(  3-C , 14-F ) :   0.1730 B(  3-C , 16-H ) :  -0.1271
B(  4-C ,  6-C ) :   0.4093 B(  4-C , 12-H ) :   1.0833 B(  4-C , 16-H ) :   0.1683
B(  5-C ,  6-C ) :   0.3199 B(  5-C ,  7-O ) :   0.1358 B(  5-C , 16-H ) :  -0.2540
B(  6-C ,  7-O ) :   0.6532 B(  6-C ,  8-C ) :   0.9115 B(  7-O , 12-H ) :   0.1293
B(  8-C ,  9-H ) :   0.9809 B(  8-C , 10-H ) :   0.9806 B(  8-C , 11-H ) :   0.9881
B( 12-H , 16-H ) :   0.1364 B( 13-H , 14-F ) :   0.1161 B( 14-F , 15-H ) :   0.1008

Dispersion correction           -0.030187656
FINAL SINGLE POINT ENERGY      -484.171619800346

DIPOLE MOMENT
-------------

Method             : SCF
Type of density    : Electron Density
Multiplicity       :   2
Irrep              :   0
Energy             :  -484.1414321446998201 Eh
Relativity type    :
Basis              : AO
                                X                 Y                 Z
Electronic contribution:     11.333631344      -2.765527275       0.005208559
Nuclear contribution   :     -9.543614509       4.316448189      -0.008964758
                        -----------------------------------------
Total Dipole Moment    :      1.790016834       1.550920915      -0.003756199
                        -----------------------------------------
Magnitude (a.u.)       :      2.368444650
Magnitude (Debye)      :      6.020107874

Rotational constants in cm-1:             0.120753             0.025521             0.021151
Rotational constants in MHz :          3620.088986           765.114430           634.082415

                             ****ORCA TERMINATED NORMALLY****
TOTAL RUN TIME: 0 days 0 hours 36 minutes 54 seconds 970 msec
