                         Program Version 6.0.0  -   RELEASE  -
|  1> !PBE0 aug-cc-pVTZ d3 TightSCF SlowConv RIJCOSX defgrid2
|  2>
|  3> %pal
|  4> nprocs 4
|  5> end
|  6>
|  7> %scf
|  8> MaxIter 1500
|  9> end
| 10>
| 11> %maxcore 3000
| 12>
| 13> !CPCM
| 14> %cpcm smd true
| 15> SMDsolvent "MeCN"
| 16> surfacetype gepol_ses
| 17> rsolv 2.19
| 18> end
| 19>
| 20> * xyz 1 2
| 21> C          -0.91447665052191     -0.47212024963727      0.00305742174444
| 22> C          -2.18959675934569      0.11971421337046      0.01409102309685
| 23> C          -2.29388700864009      1.49579494614513      0.03719397935039
| 24> C          -1.14208865599825      2.32820910625960      0.04995116881801
| 25> C           0.10947335768495      1.76881259512950      0.03960538148135
| 26> C           0.28212991065801      0.35726166855364      0.01600485453252
| 27> C           1.54760711026767     -0.28724291022231      0.00423169337063
| 28> C           2.77332093532235      0.34213760096678      0.01571595747138
| 29> C           4.06622172347746     -0.36316154066438      0.00304916339958
| 30> H           3.96002045066298     -1.45844987469069     -0.01793750531576
| 31> H           4.66637612050733     -0.03672280648830     -0.86953860101039
| 32> H           4.66526755704250     -0.07044112617912      0.88830060381995
| 33> H           2.81784562071465      1.43840343521638      0.03577451797111
| 34> H           1.53655051969215     -1.38139322639124     -0.01527207677871
| 35> H           0.98749423584764      2.41741461359963      0.04936131634716
| 36> H          -1.26152864583437      3.41417242331339      0.06788229194881
| 37> H          -3.28641699296290      1.95584755491465      0.04577091193408
| 38> H          -3.08960840973113     -0.49602884724601      0.00463129800869
| 39> O          -0.70644499866046     -1.76403981031241     -0.01892493742312
| 40> C          -1.78404812347373     -2.69340134662684     -0.03465822668874
| 41> H          -2.39834499922984     -2.55118103918316     -0.93925561775505
| 42> H          -2.39845270509497     -2.58207749303523      0.87418511117935
| 43> H          -1.31890279238437     -3.68732048679220     -0.05153622950254
| 44> *
| 45>
| 46>                          ****END OF INPUT****

CARTESIAN COORDINATES (ANGSTROEM)
---------------------------------
  C     -0.914477   -0.472120    0.003057
  C     -2.189597    0.119714    0.014091
  C     -2.293887    1.495795    0.037194
  C     -1.142089    2.328209    0.049951
  C      0.109473    1.768813    0.039605
  C      0.282130    0.357262    0.016005
  C      1.547607   -0.287243    0.004232
  C      2.773321    0.342138    0.015716
  C      4.066222   -0.363162    0.003049
  H      3.960020   -1.458450   -0.017938
  H      4.666376   -0.036723   -0.869539
  H      4.665268   -0.070441    0.888301
  H      2.817846    1.438403    0.035775
  H      1.536551   -1.381393   -0.015272
  H      0.987494    2.417415    0.049361
  H     -1.261529    3.414172    0.067882
  H     -3.286417    1.955848    0.045771
  H     -3.089608   -0.496029    0.004631
  O     -0.706445   -1.764040   -0.018925
  C     -1.784048   -2.693401   -0.034658
  H     -2.398345   -2.551181   -0.939256
  H     -2.398453   -2.582077    0.874185
  H     -1.318903   -3.687320   -0.051536

 Total Charge           Charge          ....    1
 Multiplicity           Mult            ....    2
 Number of Electrons    NEL             ....   79
 Basis Dimension        Dim             ....  782

ORBITAL ENERGIES
----------------
                 SPIN UP ORBITALS
  NO   OCC          E(Eh)            E(eV)
   0   1.0000     -19.298740      -525.1454
   1   1.0000     -10.350834      -281.6605
   2   1.0000     -10.297845      -280.2186
   3   1.0000     -10.292630      -280.0767
   4   1.0000     -10.287889      -279.9477
   5   1.0000     -10.277705      -279.6706
   6   1.0000     -10.272720      -279.5349
   7   1.0000     -10.265104      -279.3277
   8   1.0000     -10.262127      -279.2467
   9   1.0000     -10.257717      -279.1267
  10   1.0000     -10.235569      -278.5240
  11   1.0000      -1.162979       -31.6463
  12   1.0000      -0.925212       -25.1763
  13   1.0000      -0.868943       -23.6451
  14   1.0000      -0.821164       -22.3450
  15   1.0000      -0.808315       -21.9954
  16   1.0000      -0.754683       -20.5360
  17   1.0000      -0.727615       -19.7994
  18   1.0000      -0.670462       -18.2442
  19   1.0000      -0.637006       -17.3338
  20   1.0000      -0.599154       -16.3038
  21   1.0000      -0.581655       -15.8276
  22   1.0000      -0.545973       -14.8567
  23   1.0000      -0.531937       -14.4747
  24   1.0000      -0.526508       -14.3270
  25   1.0000      -0.492401       -13.3989
  26   1.0000      -0.479273       -13.0417
  27   1.0000      -0.464705       -12.6453
  28   1.0000      -0.449379       -12.2282
  29   1.0000      -0.449017       -12.2184
  30   1.0000      -0.431949       -11.7539
  31   1.0000      -0.425029       -11.5656
  32   1.0000      -0.407903       -11.0996
  33   1.0000      -0.402605       -10.9554
  34   1.0000      -0.379228       -10.3193
  35   1.0000      -0.378825       -10.3084
  36   1.0000      -0.365895        -9.9565
  37   1.0000      -0.352421        -9.5899
  38   1.0000      -0.286942        -7.8081
  39   1.0000      -0.263036        -7.1576
  40   0.0000      -0.086491        -2.3535
  41   0.0000      -0.030079        -0.8185
  42   0.0000      -0.001932        -0.0526
  43   0.0000       0.007788         0.2119
  44   0.0000       0.008979         0.2443

                 SPIN DOWN ORBITALS
  NO   OCC          E(Eh)            E(eV)
   0   1.0000     -19.295153      -525.0478
   1   1.0000     -10.348423      -281.5949
   2   1.0000     -10.294565      -280.1293
   3   1.0000     -10.288016      -279.9512
   4   1.0000     -10.286721      -279.9159
   5   1.0000     -10.275247      -279.6037
   6   1.0000     -10.272871      -279.5390
   7   1.0000     -10.265562      -279.3401
   8   1.0000     -10.260974      -279.2153
   9   1.0000     -10.258718      -279.1539
  10   1.0000     -10.235782      -278.5298
  11   1.0000      -1.156106       -31.4592
  12   1.0000      -0.918471       -24.9929
  13   1.0000      -0.860690       -23.4206
  14   1.0000      -0.813831       -22.1455
  15   1.0000      -0.805016       -21.9056
  16   1.0000      -0.753421       -20.5016
  17   1.0000      -0.722214       -19.6524
  18   1.0000      -0.664908       -18.0931
  19   1.0000      -0.633166       -17.2293
  20   1.0000      -0.594395       -16.1743
  21   1.0000      -0.579188       -15.7605
  22   1.0000      -0.544083       -14.8053
  23   1.0000      -0.529360       -14.4046
  24   1.0000      -0.512398       -13.9431
  25   1.0000      -0.489820       -13.3287
  26   1.0000      -0.477935       -13.0053
  27   1.0000      -0.463226       -12.6050
  28   1.0000      -0.447257       -12.1705
  29   1.0000      -0.434965       -11.8360
  30   1.0000      -0.422806       -11.5051
  31   1.0000      -0.419425       -11.4131
  32   1.0000      -0.406591       -11.0639
  33   1.0000      -0.401156       -10.9160
  34   1.0000      -0.377258       -10.2657
  35   1.0000      -0.365506        -9.9459
  36   1.0000      -0.363867        -9.9013
  37   1.0000      -0.333120        -9.0647
  38   1.0000      -0.276813        -7.5325
  39   0.0000      -0.179426        -4.8824
  40   0.0000      -0.060564        -1.6480
  41   0.0000      -0.015172        -0.4128
  42   0.0000      -0.001322        -0.0360
  43   0.0000       0.008379         0.2280

MULLIKEN ATOMIC CHARGES AND SPIN POPULATIONS
--------------------------------------------
   0 C :    0.624966    0.139804
   1 C :   -0.736784   -0.084683
   2 C :   -0.332878    0.158448
   3 C :   -0.749483    0.081301
   4 C :   -0.639610   -0.053227
   5 C :    1.057934    0.233980
   6 C :    0.195800    0.040808
   7 C :   -0.441370    0.356368
   8 C :   -0.785893   -0.037304
   9 H :    0.296649   -0.007061
  10 H :    0.241269    0.027205
  11 H :    0.243747    0.027223
  12 H :    0.365082   -0.024483
  13 H :    0.231274    0.007328
  14 H :    0.102198    0.005410
  15 H :    0.718262    0.001805
  16 H :    0.461050   -0.001134
  17 H :    0.673971    0.014791
  18 O :   -0.712101    0.111867
  19 C :   -0.769169   -0.011619
  20 H :    0.357513    0.006446
  21 H :    0.357970    0.006455
  22 H :    0.239603    0.000273
Sum of atomic charges         :    1.0000000

LOEWDIN ATOMIC CHARGES AND SPIN POPULATIONS
-------------------------------------------
   0 C :   -0.329686    0.113106
   1 C :    0.253706    0.020374
   2 C :    0.251781    0.090526
   3 C :    0.250036    0.064241
   4 C :    0.245015    0.027001
   5 C :   -0.065717    0.125627
   6 C :    0.268523    0.087802
   7 C :    0.292026    0.198789
   8 C :    0.601769    0.064260
   9 H :   -0.154244    0.001441
  10 H :   -0.139413    0.014021
  11 H :   -0.139400    0.014046
  12 H :   -0.148776    0.034691
  13 H :   -0.182689    0.001905
  14 H :   -0.163158   -0.003498
  15 H :   -0.147786    0.010208
  16 H :   -0.137442    0.018452
  17 H :   -0.167226   -0.005094
  18 O :    0.648449    0.104859
  19 C :    0.409543    0.011451
  20 H :   -0.145706    0.002994
  21 H :   -0.145745    0.002991
  22 H :   -0.153862   -0.000192

  Mayer bond orders larger than 0.100000
B(  0-C ,  1-C ) :   1.2861 B(  0-C ,  2-C ) :  -0.4234 B(  0-C ,  3-C ) :   0.1822
B(  0-C ,  4-C ) :  -0.7936 B(  0-C ,  5-C ) :   0.5933 B(  0-C ,  7-C ) :   0.1735
B(  0-C , 14-H ) :   0.1017 B(  0-C , 16-H ) :   0.1764 B(  0-C , 17-H ) :  -0.1126
B(  0-C , 18-O ) :   0.7255 B(  1-C ,  2-C ) :   1.1017 B(  1-C ,  3-C ) :   0.2664
B(  1-C ,  4-C ) :  -0.1114 B(  1-C ,  5-C ) :   0.1676 B(  1-C , 14-H ) :  -0.1493
B(  2-C ,  3-C ) :   1.2136 B(  2-C ,  4-C ) :  -0.2271 B(  2-C ,  5-C ) :  -0.1289
B(  2-C ,  6-C ) :   0.1372 B(  2-C , 15-H ) :   0.1043 B(  2-C , 16-H ) :   0.6778
B(  2-C , 17-H ) :   0.2153 B(  3-C ,  4-C ) :   1.2356 B(  3-C , 14-H ) :  -0.1240
B(  3-C , 17-H ) :  -0.1183 B(  4-C ,  5-C ) :   0.7779 B(  4-C , 14-H ) :   1.4739
B(  4-C , 17-H ) :   0.1844 B(  5-C ,  6-C ) :   0.4747 B(  5-C , 16-H ) :  -0.1146
B(  6-C ,  7-C ) :   0.7417 B(  6-C , 13-H ) :   1.0117 B(  7-C ,  8-C ) :   0.9236
B(  7-C , 12-H ) :   0.9550 B(  8-C ,  9-H ) :   0.8911 B(  8-C , 10-H ) :   0.9539
B(  8-C , 11-H ) :   0.9495 B(  8-C , 12-H ) :  -0.1256 B( 14-H , 16-H ) :   0.1401
B( 14-H , 17-H ) :  -0.1082 B( 18-O , 19-C ) :   1.1139 B( 19-C , 20-H ) :   0.8288
B( 19-C , 21-H ) :   0.8274 B( 19-C , 22-H ) :   0.9942

Dispersion correction           -0.020292918
FINAL SINGLE POINT ENERGY      -462.927206707419

DIPOLE MOMENT
-------------

Method             : SCF
Type of density    : Electron Density
Multiplicity       :   2
Irrep              :   0
Energy             :  -462.9069137891568175 Eh
Relativity type    :
Basis              : AO
                                X                 Y                 Z
Electronic contribution:     -4.526762380       2.863013522       0.050208641
Nuclear contribution   :      4.638279725      -2.868122594      -0.050338921
                        -----------------------------------------
Total Dipole Moment    :      0.111517344      -0.005109072      -0.000130280
                        -----------------------------------------
Magnitude (a.u.)       :      0.111634393
Magnitude (Debye)      :      0.283752077

Rotational constants in cm-1:             0.050628             0.027043             0.017747
Rotational constants in MHz :          1517.785345           810.742847           532.038071

                             ****ORCA TERMINATED NORMALLY****
TOTAL RUN TIME: 0 days 0 hours 11 minutes 53 seconds 891 msec
