                         Program Version 6.0.0  -   RELEASE  -
|  1> !B3LYP aug-cc-pVTZ d3 TightSCF SlowConv RIJCOSX defgrid2
|  2>
|  3> %pal
|  4> nprocs 4
|  5> end
|  6>
|  7> %scf
|  8> MaxIter 1500
|  9> end
| 10>
| 11> %maxcore 3000
| 12>
| 13> !CPCM
| 14> %cpcm smd true
| 15> SMDsolvent "MeCN"
| 16> surfacetype gepol_ses
| 17> rsolv 2.19
| 18> end
| 19>
| 20> * xyz 1 2
| 21> C           1.71497106575748      1.06171932835084     -0.03514469304606
| 22> C           0.56719485465527      1.82392831640831     -0.00294767414977
| 23> C          -0.68893058329112      1.20760587034953      0.00674165425173
| 24> C          -0.80034038219193     -0.22800805453168     -0.01673661650706
| 25> C           0.34844024659380     -1.00330914690348     -0.04917310869374
| 26> C           1.61061604456188     -0.38138433792306     -0.05904556326935
| 27> N           2.73628401268176     -1.09580230581758     -0.09073600890504
| 28> H           2.71545111037900     -2.11343777495485     -0.10881829621903
| 29> H           3.64963295510932     -0.64805903858531     -0.09811724471076
| 30> H           0.25123309236129     -2.09096960143506     -0.06695996926436
| 31> O          -1.95374878515058     -0.85587592591482     -0.00850993427148
| 32> C          -3.19266872724087     -0.16172631263894      0.01967853662734
| 33> H          -3.96658303938529     -0.94029601988636      0.01614088330526
| 34> H          -3.30896028056596      0.47212649064151     -0.87574217138754
| 35> H          -3.28534792940125      0.44030899731552      0.93950878924919
| 36> H          -1.58838328810020      1.82581855641198      0.03268809937411
| 37> H           0.63303154865974      2.91458072514130      0.01531465253765
| 38> H           2.70276038456766      1.53066783397213     -0.04298803492109
| 39> *
| 40>
| 41>                          ****END OF INPUT****

CARTESIAN COORDINATES (ANGSTROEM)
---------------------------------
  C      1.714971    1.061719   -0.035145
  C      0.567195    1.823928   -0.002948
  C     -0.688931    1.207606    0.006742
  C     -0.800340   -0.228008   -0.016737
  C      0.348440   -1.003309   -0.049173
  C      1.610616   -0.381384   -0.059046
  N      2.736284   -1.095802   -0.090736
  H      2.715451   -2.113438   -0.108818
  H      3.649633   -0.648059   -0.098117
  H      0.251233   -2.090970   -0.066960
  O     -1.953749   -0.855876   -0.008510
  C     -3.192669   -0.161726    0.019679
  H     -3.966583   -0.940296    0.016141
  H     -3.308960    0.472126   -0.875742
  H     -3.285348    0.440309    0.939509
  H     -1.588383    1.825819    0.032688
  H      0.633032    2.914581    0.015315
  H      2.702760    1.530668   -0.042988

 Total Charge           Charge          ....    1
 Multiplicity           Mult            ....    2
 Number of Electrons    NEL             ....   65
 Basis Dimension        Dim             ....  621

ORBITAL ENERGIES
----------------
                 SPIN UP ORBITALS
  NO   OCC          E(Eh)            E(eV)
   0   1.0000     -19.189868      -522.1829
   1   1.0000     -14.397476      -391.7752
   2   1.0000     -10.278868      -279.7022
   3   1.0000     -10.276994      -279.6512
   4   1.0000     -10.229522      -278.3594
   5   1.0000     -10.229053      -278.3467
   6   1.0000     -10.224775      -278.2303
   7   1.0000     -10.209636      -277.8183
   8   1.0000     -10.200726      -277.5759
   9   1.0000      -1.109653       -30.1952
  10   1.0000      -0.988205       -26.8904
  11   1.0000      -0.878204       -23.8971
  12   1.0000      -0.794613       -21.6225
  13   1.0000      -0.768900       -20.9228
  14   1.0000      -0.723333       -19.6829
  15   1.0000      -0.653500       -17.7826
  16   1.0000      -0.633199       -17.2302
  17   1.0000      -0.570116       -15.5137
  18   1.0000      -0.566891       -15.4259
  19   1.0000      -0.521518       -14.1912
  20   1.0000      -0.511495       -13.9185
  21   1.0000      -0.495691       -13.4884
  22   1.0000      -0.491577       -13.3765
  23   1.0000      -0.456252       -12.4153
  24   1.0000      -0.442517       -12.0415
  25   1.0000      -0.431912       -11.7529
  26   1.0000      -0.408907       -11.1269
  27   1.0000      -0.394402       -10.7322
  28   1.0000      -0.386455       -10.5160
  29   1.0000      -0.348716        -9.4890
  30   1.0000      -0.345588        -9.4039
  31   1.0000      -0.265020        -7.2116
  32   1.0000      -0.259521        -7.0619
  33   0.0000      -0.038859        -1.0574
  34   0.0000      -0.033764        -0.9188
  35   0.0000      -0.008481        -0.2308
  36   0.0000       0.001760         0.0479
  37   0.0000       0.007746         0.2108

                 SPIN DOWN ORBITALS
  NO   OCC          E(Eh)            E(eV)
   0   1.0000     -19.189485      -522.1724
   1   1.0000     -14.390520      -391.5860
   2   1.0000     -10.279448      -279.7180
   3   1.0000     -10.276563      -279.6395
   4   1.0000     -10.229538      -278.3599
   5   1.0000     -10.222710      -278.1741
   6   1.0000     -10.219694      -278.0920
   7   1.0000     -10.211731      -277.8753
   8   1.0000     -10.199811      -277.5510
   9   1.0000      -1.108929       -30.1755
  10   1.0000      -0.976385       -26.5688
  11   1.0000      -0.870165       -23.6784
  12   1.0000      -0.792381       -21.5618
  13   1.0000      -0.755978       -20.5712
  14   1.0000      -0.718964       -19.5640
  15   1.0000      -0.649616       -17.6769
  16   1.0000      -0.629614       -17.1327
  17   1.0000      -0.568695       -15.4750
  18   1.0000      -0.562953       -15.3187
  19   1.0000      -0.517527       -14.0826
  20   1.0000      -0.508344       -13.8327
  21   1.0000      -0.492467       -13.4007
  22   1.0000      -0.488693       -13.2980
  23   1.0000      -0.455663       -12.3992
  24   1.0000      -0.430390       -11.7115
  25   1.0000      -0.421096       -11.4586
  26   1.0000      -0.406209       -11.0535
  27   1.0000      -0.392561       -10.6821
  28   1.0000      -0.372723       -10.1423
  29   1.0000      -0.347453        -9.4547
  30   1.0000      -0.324886        -8.8406
  31   1.0000      -0.254255        -6.9186
  32   0.0000      -0.173260        -4.7146
  33   0.0000      -0.027583        -0.7506
  34   0.0000      -0.012530        -0.3410
  35   0.0000      -0.007971        -0.2169
  36   0.0000       0.002205         0.0600

MULLIKEN ATOMIC CHARGES AND SPIN POPULATIONS
--------------------------------------------
   0 C :   -0.552631    0.336623
   1 C :   -0.392925   -0.145043
   2 C :   -0.370635    0.436981
   3 C :    1.064989   -0.037515
   4 C :   -0.876953    0.052389
   5 C :    1.052279    0.067999
   6 N :   -0.401161    0.308323
   7 H :    0.061273   -0.006302
   8 H :    0.070589   -0.005454
   9 H :    0.423364   -0.003090
  10 O :   -0.655252    0.015547
  11 C :   -0.615892    0.002329
  12 H :    0.259695   -0.000060
  13 H :    0.274680   -0.001124
  14 H :    0.274436   -0.001103
  15 H :    0.469264   -0.017467
  16 H :    0.458349    0.006332
  17 H :    0.456528   -0.009366
Sum of atomic charges         :    1.0000000

LOEWDIN ATOMIC CHARGES AND SPIN POPULATIONS
-------------------------------------------
   0 C :    0.287799    0.170242
   1 C :    0.244974    0.050170
   2 C :    0.282295    0.211264
   3 C :   -0.371395    0.058603
   4 C :    0.261287    0.040423
   5 C :   -0.183204    0.113488
   6 N :    0.947256    0.211122
   7 H :   -0.200778    0.028755
   8 H :   -0.206963    0.026400
   9 H :   -0.146522    0.005552
  10 O :    0.618004    0.010658
  11 C :    0.376698    0.001898
  12 H :   -0.162832   -0.000081
  13 H :   -0.152210    0.000547
  14 H :   -0.152128    0.000536
  15 H :   -0.159330    0.047527
  16 H :   -0.146170   -0.010393
  17 H :   -0.136781    0.033289

  Mayer bond orders larger than 0.100000
B(  0-C ,  1-C ) :   1.3300 B(  0-C ,  2-C ) :   0.2026 B(  0-C ,  3-C ) :  -0.1390
B(  0-C ,  4-C ) :   0.3870 B(  0-C ,  5-C ) :   0.6034 B(  0-C ,  6-N ) :  -0.1540
B(  0-C , 17-H ) :   0.5372 B(  1-C ,  2-C ) :   0.9565 B(  1-C ,  3-C ) :  -0.2023
B(  1-C ,  4-C ) :  -0.1317 B(  1-C ,  5-C ) :  -0.1727 B(  1-C , 16-H ) :   0.6137
B(  2-C ,  3-C ) :   0.8453 B(  2-C ,  4-C ) :   0.3485 B(  2-C ,  5-C ) :  -0.1360
B(  2-C , 15-H ) :   0.5783 B(  3-C ,  4-C ) :   0.6946 B(  3-C ,  5-C ) :  -0.2064
B(  3-C ,  6-N ) :   0.1171 B(  3-C , 10-O ) :   0.4018 B(  4-C ,  5-C ) :   0.6225
B(  4-C ,  6-N ) :  -0.1741 B(  4-C ,  9-H ) :   0.4690 B(  4-C , 10-O ) :   0.3201
B(  5-C ,  6-N ) :   0.9405 B(  5-C ,  9-H ) :   0.1033 B(  6-N ,  7-H ) :   1.1306
B(  6-N ,  8-H ) :   1.1125 B( 10-O , 11-C ) :   0.9512 B( 11-C , 12-H ) :   0.9511
B( 11-C , 13-H ) :   0.9175 B( 11-C , 14-H ) :   0.9180

Dispersion correction           -0.029548217
FINAL SINGLE POINT ENERGY      -401.895778670962

DIPOLE MOMENT
-------------

Method             : SCF
Type of density    : Electron Density
Multiplicity       :   2
Irrep              :   0
Energy             :  -401.8662304537569412 Eh
Relativity type    :
Basis              : AO
                                X                 Y                 Z
Electronic contribution:      3.942538649      -1.169031949      -0.076920917
Nuclear contribution   :     -2.044978462       1.271551477       0.044658972
                        -----------------------------------------
Total Dipole Moment    :      1.897560187       0.102519528      -0.032261945
                        -----------------------------------------
Magnitude (a.u.)       :      1.900601418
Magnitude (Debye)      :      4.830944884

Rotational constants in cm-1:             0.119593             0.037937             0.028965
Rotational constants in MHz :          3585.313936          1137.321017           868.358011

                             ****ORCA TERMINATED NORMALLY****
TOTAL RUN TIME: 0 days 0 hours 4 minutes 59 seconds 529 msec
