                         Program Version 6.0.0  -   RELEASE  -
|  1> !TPSSh aug-cc-pVTZ d3 TightSCF SlowConv RIJCOSX defgrid2
|  2>
|  3> %pal
|  4> nprocs 4
|  5> end
|  6>
|  7> %scf
|  8> MaxIter 1500
|  9> end
| 10>
| 11> %maxcore 3000
| 12>
| 13> !CPCM
| 14> %cpcm smd true
| 15> SMDsolvent "MeCN"
| 16> surfacetype gepol_ses
| 17> rsolv 2.19
| 18> end
| 19>
| 20> * xyz 1 2
| 21> C           2.42348472290459     -0.91745853608407      0.59245240880380
| 22> C           1.25995896348321     -0.39202749196625     -0.02333100512405
| 23> C           1.34845533499414      0.85031226217091     -0.70354304574749
| 24> C           2.54901795106357      1.53889253592779     -0.75588972072195
| 25> C           3.68078809059867      1.01347219167219     -0.12249703890860
| 26> C           3.61293527426724     -0.21317645517309      0.55511971135216
| 27> H           4.49963825852970     -0.61051765955941      1.05572901180402
| 28> H           4.62917087127076      1.55697433746367     -0.16496199627931
| 29> H           2.61592640542583      2.48137948500377     -1.30532606762871
| 30> H           0.47393529747941      1.23580556067586     -1.23411925330570
| 31> C          -0.00001731418985     -1.11439032518152     -0.00002747562644
| 32> C          -0.00002568960524     -2.50679262514812     -0.00005487800504
| 33> H          -0.93480054732863     -3.07584961343870     -0.00342574946663
| 34> H           0.93474533226452     -3.07585703929259      0.00329162420143
| 35> C          -1.25998231282226     -0.39200541574857      0.02329276572865
| 36> C          -2.42352655120021     -0.91741544935804     -0.59247757528391
| 37> C          -3.61296415978219     -0.21311035984979     -0.55512705740855
| 38> C          -3.68079177573927      1.01353038434026      0.12250956134291
| 39> C          -2.54900448879428      1.53892565378929      0.75589582496725
| 40> C          -1.34845157706727      0.85032505299238      0.70352498564033
| 41> H          -0.47391984231340      1.23578710201298      1.23410367351677
| 42> H          -2.61589448475022      2.48140107327864      1.30534730547376
| 43> H          -4.62916722704471      1.55704319189423      0.16499523284128
| 44> H          -4.49967994828211     -0.61043350047146     -1.05572841225155
| 45> H          -2.37320187697182     -1.85878167189054     -1.14547741375033
| 46> H           2.37313869360983     -1.85882668805983      1.14544868383589
| 47> *
| 48>
| 49>                          ****END OF INPUT****

CARTESIAN COORDINATES (ANGSTROEM)
---------------------------------
  C      2.423485   -0.917459    0.592452
  C      1.259959   -0.392027   -0.023331
  C      1.348455    0.850312   -0.703543
  C      2.549018    1.538893   -0.755890
  C      3.680788    1.013472   -0.122497
  C      3.612935   -0.213176    0.555120
  H      4.499638   -0.610518    1.055729
  H      4.629171    1.556974   -0.164962
  H      2.615926    2.481379   -1.305326
  H      0.473935    1.235806   -1.234119
  C     -0.000017   -1.114390   -0.000027
  C     -0.000026   -2.506793   -0.000055
  H     -0.934801   -3.075850   -0.003426
  H      0.934745   -3.075857    0.003292
  C     -1.259982   -0.392005    0.023293
  C     -2.423527   -0.917415   -0.592478
  C     -3.612964   -0.213110   -0.555127
  C     -3.680792    1.013530    0.122510
  C     -2.549004    1.538926    0.755896
  C     -1.348452    0.850325    0.703525
  H     -0.473920    1.235787    1.234104
  H     -2.615894    2.481401    1.305347
  H     -4.629167    1.557043    0.164995
  H     -4.499680   -0.610434   -1.055728
  H     -2.373202   -1.858782   -1.145477
  H      2.373139   -1.858827    1.145449

 Total Charge           Charge          ....    1
 Multiplicity           Mult            ....    2
 Number of Electrons    NEL             ....   95
 Basis Dimension        Dim             ....  920

ORBITAL ENERGIES
----------------
                 SPIN UP ORBITALS
  NO   OCC          E(Eh)            E(eV)
   0   1.0000     -10.191053      -277.3126
   1   1.0000     -10.183213      -277.0993
   2   1.0000     -10.167265      -276.6654
   3   1.0000     -10.167255      -276.6651
   4   1.0000     -10.150827      -276.2181
   5   1.0000     -10.150822      -276.2179
   6   1.0000     -10.150536      -276.2101
   7   1.0000     -10.150487      -276.2088
   8   1.0000     -10.148812      -276.1632
   9   1.0000     -10.148808      -276.1631
  10   1.0000     -10.139592      -275.9123
  11   1.0000     -10.139588      -275.9122
  12   1.0000     -10.138873      -275.8928
  13   1.0000     -10.138856      -275.8923
  14   1.0000      -0.886270       -24.1166
  15   1.0000      -0.860843       -23.4247
  16   1.0000      -0.823048       -22.3963
  17   1.0000      -0.758237       -20.6327
  18   1.0000      -0.756706       -20.5910
  19   1.0000      -0.749279       -20.3889
  20   1.0000      -0.734333       -19.9822
  21   1.0000      -0.651923       -17.7397
  22   1.0000      -0.618259       -16.8237
  23   1.0000      -0.608489       -16.5578
  24   1.0000      -0.602496       -16.3947
  25   1.0000      -0.561081       -15.2678
  26   1.0000      -0.530859       -14.4454
  27   1.0000      -0.509903       -13.8752
  28   1.0000      -0.475993       -12.9524
  29   1.0000      -0.473914       -12.8958
  30   1.0000      -0.456316       -12.4170
  31   1.0000      -0.447816       -12.1857
  32   1.0000      -0.446659       -12.1542
  33   1.0000      -0.426547       -11.6069
  34   1.0000      -0.425180       -11.5697
  35   1.0000      -0.424747       -11.5580
  36   1.0000      -0.397517       -10.8170
  37   1.0000      -0.390026       -10.6131
  38   1.0000      -0.383506       -10.4357
  39   1.0000      -0.362925        -9.8757
  40   1.0000      -0.352599        -9.5947
  41   1.0000      -0.347625        -9.4594
  42   1.0000      -0.343156        -9.3378
  43   1.0000      -0.332546        -9.0490
  44   1.0000      -0.277458        -7.5500
  45   1.0000      -0.274355        -7.4656
  46   1.0000      -0.269079        -7.3220
  47   1.0000      -0.256688        -6.9848
  48   0.0000      -0.109250        -2.9728
  49   0.0000      -0.061982        -1.6866
  50   0.0000      -0.052024        -1.4156
  51   0.0000      -0.038079        -1.0362
  52   0.0000      -0.008651        -0.2354

                 SPIN DOWN ORBITALS
  NO   OCC          E(Eh)            E(eV)
   0   1.0000     -10.191476      -277.3242
   1   1.0000     -10.174546      -276.8635
   2   1.0000     -10.166040      -276.6320
   3   1.0000     -10.166030      -276.6317
   4   1.0000     -10.149577      -276.1840
   5   1.0000     -10.149527      -276.1827
   6   1.0000     -10.148902      -276.1657
   7   1.0000     -10.148897      -276.1655
   8   1.0000     -10.148077      -276.1432
   9   1.0000     -10.148073      -276.1431
  10   1.0000     -10.139911      -275.9210
  11   1.0000     -10.139907      -275.9209
  12   1.0000     -10.139340      -275.9055
  13   1.0000     -10.139323      -275.9050
  14   1.0000      -0.882606       -24.0169
  15   1.0000      -0.858246       -23.3541
  16   1.0000      -0.817632       -22.2489
  17   1.0000      -0.756182       -20.5768
  18   1.0000      -0.754354       -20.5270
  19   1.0000      -0.746750       -20.3201
  20   1.0000      -0.722852       -19.6698
  21   1.0000      -0.646217       -17.5845
  22   1.0000      -0.616385       -16.7727
  23   1.0000      -0.605641       -16.4803
  24   1.0000      -0.600957       -16.3529
  25   1.0000      -0.558533       -15.1984
  26   1.0000      -0.529871       -14.4185
  27   1.0000      -0.507861       -13.8196
  28   1.0000      -0.474379       -12.9085
  29   1.0000      -0.471952       -12.8425
  30   1.0000      -0.454752       -12.3744
  31   1.0000      -0.445123       -12.1124
  32   1.0000      -0.444700       -12.1009
  33   1.0000      -0.425712       -11.5842
  34   1.0000      -0.424859       -11.5610
  35   1.0000      -0.422035       -11.4841
  36   1.0000      -0.395290       -10.7564
  37   1.0000      -0.382440       -10.4067
  38   1.0000      -0.376535       -10.2460
  39   1.0000      -0.362400        -9.8614
  40   1.0000      -0.352108        -9.5814
  41   1.0000      -0.344385        -9.3712
  42   1.0000      -0.342048        -9.3076
  43   1.0000      -0.315403        -8.5826
  44   1.0000      -0.273149        -7.4328
  45   1.0000      -0.266800        -7.2600
  46   1.0000      -0.262524        -7.1437
  47   0.0000      -0.203436        -5.5358
  48   0.0000      -0.081294        -2.2121
  49   0.0000      -0.054090        -1.4719
  50   0.0000      -0.047929        -1.3042
  51   0.0000      -0.033341        -0.9073

MULLIKEN ATOMIC CHARGES AND SPIN POPULATIONS
--------------------------------------------
   0 C :   -0.912900    0.022929
   1 C :    1.804592    0.102420
   2 C :   -0.511521    0.056815
   3 C :   -0.817786   -0.031469
   4 C :   -0.034538    0.129352
   5 C :   -0.613979   -0.020321
   6 H :    0.444549   -0.001410
   7 H :    0.499760    0.003487
   8 H :    0.397087   -0.000360
   9 H :    0.065140   -0.001159
  10 C :    0.752673    0.027746
  11 C :   -0.617917    0.500884
  12 H :    0.162289   -0.006258
  13 H :    0.162882   -0.006176
  14 C :    1.802540    0.102498
  15 C :   -0.899802    0.023061
  16 C :   -0.607322   -0.020329
  17 C :   -0.030144    0.129400
  18 C :   -0.816363   -0.031549
  19 C :   -0.511032    0.056841
  20 H :    0.065737   -0.001235
  21 H :    0.398496   -0.000386
  22 H :    0.496769    0.003654
  23 H :    0.417232   -0.001494
  24 H :   -0.046000   -0.018531
  25 H :   -0.050441   -0.018410
Sum of atomic charges         :    1.0000000

LOEWDIN ATOMIC CHARGES AND SPIN POPULATIONS
-------------------------------------------
   0 C :    0.248037    0.032713
   1 C :   -0.098647    0.057265
   2 C :    0.238510    0.039225
   3 C :    0.243583    0.014510
   4 C :    0.241266    0.060611
   5 C :    0.241102    0.016915
   6 H :   -0.154901   -0.001128
   7 H :   -0.150012    0.013835
   8 H :   -0.154502   -0.001883
   9 H :   -0.151535    0.006049
  10 C :   -0.063803    0.104122
  11 C :    0.684799    0.292082
  12 H :   -0.155997    0.058583
  13 H :   -0.156010    0.058585
  14 C :   -0.098615    0.057259
  15 C :    0.248076    0.032722
  16 C :    0.241119    0.016910
  17 C :    0.241284    0.060617
  18 C :    0.243609    0.014513
  19 C :    0.238454    0.039228
  20 H :   -0.151643    0.006051
  21 H :   -0.154495   -0.001883
  22 H :   -0.150010    0.013836
  23 H :   -0.154904   -0.001130
  24 H :   -0.157381    0.005197
  25 H :   -0.157386    0.005195

  Mayer bond orders larger than 0.100000
B(  0-C ,  1-C ) :   0.3234 B(  0-C ,  2-C ) :  -0.5120 B(  0-C ,  3-C ) :   0.1222
B(  0-C ,  5-C ) :   1.6874 B(  0-C , 10-C ) :   0.3009 B(  0-C , 25-H ) :   1.3974
B(  1-C ,  2-C ) :   0.7189 B(  1-C ,  3-C ) :  -0.1823 B(  1-C ,  4-C ) :  -0.2426
B(  1-C ,  5-C ) :  -0.1207 B(  1-C ,  6-H ) :   0.1041 B(  1-C ,  8-H ) :   0.1071
B(  1-C ,  9-H ) :   0.1133 B(  1-C , 10-C ) :   0.2071 B(  1-C , 11-C ) :  -0.1834
B(  1-C , 14-C ) :  -0.2708 B(  1-C , 25-H ) :   0.1012 B(  2-C ,  3-C ) :   1.6352
B(  2-C ,  9-H ) :   1.2433 B(  2-C , 10-C ) :   0.1079 B(  2-C , 19-C ) :   0.1824
B(  3-C ,  4-C ) :   1.4771 B(  3-C ,  5-C ) :   0.2230 B(  3-C ,  8-H ) :   0.5042
B(  4-C ,  5-C ) :   1.3100 B(  4-C ,  6-H ) :   0.1272 B(  4-C ,  7-H ) :   0.4325
B(  4-C ,  8-H ) :   0.1132 B(  4-C , 10-C ) :   0.1867 B(  5-C ,  6-H ) :   0.4798
B(  9-H , 10-C ) :  -0.1594 B(  9-H , 25-H ) :   0.1174 B( 10-C , 11-C ) :   0.8493
B( 10-C , 14-C ) :   0.2062 B( 10-C , 15-C ) :   0.3027 B( 10-C , 17-C ) :   0.1851
B( 10-C , 19-C ) :   0.1079 B( 10-C , 20-H ) :  -0.1583 B( 10-C , 24-H ) :  -0.1421
B( 10-C , 25-H ) :  -0.1421 B( 11-C , 12-H ) :   0.9810 B( 11-C , 13-H ) :   0.9799
B( 11-C , 14-C ) :  -0.1847 B( 14-C , 15-C ) :   0.3254 B( 14-C , 16-C ) :  -0.1211
B( 14-C , 17-C ) :  -0.2402 B( 14-C , 18-C ) :  -0.1826 B( 14-C , 19-C ) :   0.7183
B( 14-C , 20-H ) :   0.1104 B( 14-C , 21-H ) :   0.1078 B( 14-C , 23-H ) :   0.1051
B( 14-C , 24-H ) :   0.1019 B( 15-C , 16-C ) :   1.6686 B( 15-C , 18-C ) :   0.1189
B( 15-C , 19-C ) :  -0.5132 B( 15-C , 24-H ) :   1.3876 B( 16-C , 17-C ) :   1.3026
B( 16-C , 18-C ) :   0.2233 B( 16-C , 23-H ) :   0.5165 B( 17-C , 18-C ) :   1.4753
B( 17-C , 21-H ) :   0.1126 B( 17-C , 22-H ) :   0.4448 B( 17-C , 23-H ) :   0.1170
B( 18-C , 19-C ) :   1.6351 B( 18-C , 21-H ) :   0.5032 B( 19-C , 20-H ) :   1.2439
B( 20-H , 24-H ) :   0.1153

Dispersion correction           -0.038747755
FINAL SINGLE POINT ENERGY      -540.767560557674

DIPOLE MOMENT
-------------

Method             : SCF
Type of density    : Electron Density
Multiplicity       :   2
Irrep              :   0
Energy             :  -540.7288128026439153 Eh
Relativity type    :
Basis              : AO
                                X                 Y                 Z
Electronic contribution:     -0.000908380      -0.300214865      -0.000809119
Nuclear contribution   :     -0.000002786      -0.578596445       0.000006465
                        -----------------------------------------
Total Dipole Moment    :     -0.000911167      -0.878811310      -0.000802654
                        -----------------------------------------
Magnitude (a.u.)       :      0.878812149
Magnitude (Debye)      :      2.233762963

Rotational constants in cm-1:             0.053565             0.014254             0.012120
Rotational constants in MHz :          1605.831188           427.320428           363.336984

                             ****ORCA TERMINATED NORMALLY****
TOTAL RUN TIME: 0 days 0 hours 16 minutes 46 seconds 337 msec
