                         Program Version 6.0.0  -   RELEASE  -
|  1> !r2SCANh opt aug-cc-pVTZ d3 TightSCF SlowConv RIJCOSX defgrid2
|  2>
|  3> %pal
|  4> nprocs 8
|  5> end
|  6>
|  7> %scf
|  8> MaxIter 1500
|  9> end
| 10>
| 11> %maxcore 3500
| 12>
| 13> !CPCM
| 14> %cpcm smd true
| 15> SMDsolvent "MeCN"
| 16> surfacetype gepol_ses
| 17> rsolv 2.19
| 18> end
| 19>
| 20> * xyz 0 1
| 21>   C          -1.14933226451234     -1.23882509190584     -0.00046672280380
| 22>   C          -2.50857813675911     -0.94988227106401     -0.00054346756040
| 23>   C          -2.93817015440872      0.37868475331297     -0.00006408928605
| 24>   C          -2.00629101009504      1.41668452923491      0.00049673263770
| 25>   C          -0.64374499246001      1.13250357756874      0.00056381244254
| 26>   C          -0.20908515748665     -0.19753416758703      0.00007645085547
| 27>   C           1.21837162790625     -0.59720306751016      0.00007667382631
| 28>   O           1.62341721296480     -1.71314820484524     -0.00012734829677
| 29>   Cl          2.38206247173385      0.76415186429790      0.00056602291059
| 30>   H           0.09169908378046      1.93929798920226      0.00098639048783
| 31>   H          -2.34320651232058      2.45698180479248      0.00087795608335
| 32>   H          -4.00834754942676      0.60618222514384     -0.00012604204670
| 33>   H          -3.23886079813446     -1.76401666244183     -0.00098417146236
| 34>   H          -0.79061102078168     -2.27094327819897     -0.00083749778771
| 35> *
| 36>
| 37>                          ****END OF INPUT****
 Total Charge           Charge          ....    0
 Multiplicity           Mult            ....    1
 Number of Electrons    NEL             ....   72
Dispersion correction           -0.004975185
FINAL SINGLE POINT ENERGY      -805.109332308841
Dispersion correction             ... done (  0.1 sec)
Dispersion correction           -0.004983287
FINAL SINGLE POINT ENERGY      -805.110306104333
Dispersion correction             ... done (  0.0 sec)
Dispersion correction           -0.004984318
FINAL SINGLE POINT ENERGY      -805.110420942782
Dispersion correction             ... done (  0.1 sec)
FINAL SINGLE POINT ENERGY      -805.110306136389
FINAL SINGLE POINT ENERGY      -805.110488094187
Dispersion correction             ... done (  0.0 sec)
Dispersion correction           -0.004982431
FINAL SINGLE POINT ENERGY      -805.110494144879
Dispersion correction             ... done (  0.1 sec)
Dispersion correction           -0.004982284
FINAL SINGLE POINT ENERGY      -805.110495801507
Dispersion correction             ... done (  0.1 sec)
                    ***********************HURRAY********************

CARTESIAN COORDINATES (ANGSTROEM)
---------------------------------
  C     -1.153929   -1.239424   -0.000334
  C     -2.504220   -0.946909   -0.000649
  C     -2.928183    0.377414   -0.000230
  C     -1.999487    1.409923    0.000388
  C     -0.644411    1.126545    0.000537
  C     -0.215927   -0.200326    0.000188
  C      1.194014   -0.599814    0.000437
  O      1.628865   -1.703922    0.000537
  Cl     2.385193    0.779808   -0.000485
  H      0.074343    1.930901    0.001044
  H     -2.330872    2.438590    0.001441
  H     -3.985608    0.603793   -0.000163
  H     -3.228179   -1.749481   -0.001305
  H     -0.812276   -2.264163   -0.000912

 Multiplicity           Mult            ....    1
 Number of Electrons    NEL             ....   72
 Basis Dimension        Dim             ....  533

ORBITAL ENERGIES
----------------

  NO   OCC          E(Eh)            E(eV)
   0   2.0000    -101.585556     -2764.2835
   1   2.0000     -19.147320      -521.0251
   2   2.0000     -10.310577      -280.5651
   3   2.0000     -10.194746      -277.4131
   4   2.0000     -10.179205      -276.9903
   5   2.0000     -10.178876      -276.9813
   6   2.0000     -10.175704      -276.8950
   7   2.0000     -10.170327      -276.7487
   8   2.0000     -10.170187      -276.7449
   9   2.0000      -9.497017      -258.4270
  10   2.0000      -7.215127      -196.3336
  11   2.0000      -7.208491      -196.1530
  12   2.0000      -7.207363      -196.1223
  13   2.0000      -1.101361       -29.9696
  14   2.0000      -0.883332       -24.0367
  15   2.0000      -0.841758       -22.9054
  16   2.0000      -0.777393       -21.1539
  17   2.0000      -0.763871       -20.7860
  18   2.0000      -0.653195       -17.7743
  19   2.0000      -0.617185       -16.7945
  20   2.0000      -0.565878       -15.3983
  21   2.0000      -0.522083       -14.2066
  22   2.0000      -0.483052       -13.1445
  23   2.0000      -0.471621       -12.8335
  24   2.0000      -0.447898       -12.1879
  25   2.0000      -0.440636       -11.9903
  26   2.0000      -0.439245       -11.9525
  27   2.0000      -0.425145       -11.5688
  28   2.0000      -0.378485       -10.2991
  29   2.0000      -0.359333        -9.7779
  30   2.0000      -0.344091        -9.3632
  31   2.0000      -0.322726        -8.7818
  32   2.0000      -0.319650        -8.6981
  33   2.0000      -0.291329        -7.9275
  34   2.0000      -0.274041        -7.4570
  35   2.0000      -0.268636        -7.3100
  36   0.0000      -0.094500        -2.5715
  37   0.0000      -0.035987        -0.9793
  38   0.0000      -0.002303        -0.0627
  39   0.0000       0.011482         0.3124
  40   0.0000       0.013195         0.3591

MULLIKEN ATOMIC CHARGES
-----------------------
   0 C :   -0.858409
   1 C :   -0.433667
   2 C :   -0.266113
   3 C :   -0.672636
   4 C :   -0.789515
   5 C :    1.465423
   6 C :    0.637284
   7 O :   -0.723708
   8 Cl:   -0.297827
   9 H :    0.349902
  10 H :    0.484443
  11 H :    0.481927
  12 H :    0.443363
  13 H :    0.179533
Sum of atomic charges:    0.0000000

LOEWDIN ATOMIC CHARGES
----------------------
   0 C :    0.197042
   1 C :    0.222459
   2 C :    0.220366
   3 C :    0.219513
   4 C :    0.164153
   5 C :   -0.250169
   6 C :   -1.105083
   7 O :    0.415277
   8 Cl:    0.847641
   9 H :   -0.242009
  10 H :   -0.170392
  11 H :   -0.166568
  12 H :   -0.170048
  13 H :   -0.182180

  Mayer bond orders larger than 0.100000
B(  0-C ,  1-C ) :   1.1584 B(  0-C ,  4-C ) :  -0.1050 B(  0-C ,  5-C ) :   0.3114
B(  0-C ,  6-C ) :   0.1380 B(  0-C , 13-H ) :   0.8976 B(  1-C ,  2-C ) :   1.1136
B(  1-C , 12-H ) :   0.6914 B(  2-C ,  3-C ) :   1.1840 B(  2-C ,  5-C ) :  -0.1704
B(  2-C , 11-H ) :   0.6334 B(  3-C ,  4-C ) :   1.1604 B(  3-C ,  5-C ) :  -0.1404
B(  3-C , 10-H ) :   0.6168 B(  4-C ,  5-C ) :   0.1918 B(  4-C ,  6-C ) :   0.1632
B(  4-C ,  9-H ) :   0.9941 B(  5-C ,  6-C ) :   0.6108 B(  5-C ,  7-O ) :   0.2354
B(  5-C ,  8-Cl) :   0.1632 B(  6-C ,  7-O ) :   1.0237 B(  6-C ,  8-Cl) :   0.7670
B(  7-O , 13-H ) :   0.1506 B(  8-Cl,  9-H ) :  -0.1504

Dispersion correction           -0.004982193
FINAL SINGLE POINT ENERGY      -805.110497724377

DIPOLE MOMENT
-------------

Method             : SCF
Type of density    : Electron Density
Multiplicity       :   1
Irrep              :   0
Energy             :  -805.1055155313430305 Eh
Relativity type    :
Basis              : AO
                                X                 Y                 Z
Electronic contribution:     10.718954589       0.766357523      -0.000787369
Nuclear contribution   :    -12.851521559      -0.183060059       0.000864504
                        -----------------------------------------
Total Dipole Moment    :     -2.132566971       0.583297463       0.000077135
                        -----------------------------------------
Magnitude (a.u.)       :      2.210899777
Magnitude (Debye)      :      5.619660631

Rotational constants in cm-1:             0.104567             0.031113             0.023979
Rotational constants in MHz :          3134.827004           932.756863           718.862051

                             ****ORCA TERMINATED NORMALLY****
TOTAL RUN TIME: 0 days 0 hours 36 minutes 9 seconds 359 msec
