                         Program Version 6.0.0  -   RELEASE  -
|  1> !r2SCAN aug-cc-pVTZ d3 TightSCF SlowConv RIJCOSX defgrid2
|  2>
|  3> %pal
|  4> nprocs 4
|  5> end
|  6>
|  7> %scf
|  8> MaxIter 1500
|  9> end
| 10>
| 11> %maxcore 3000
| 12>
| 13> !CPCM
| 14> %cpcm smd true
| 15> SMDsolvent "MeCN"
| 16> surfacetype gepol_ses
| 17> rsolv 2.19
| 18> end
| 19>
| 20> * xyz 0 1
| 21> C          -1.91227700743169     -0.69599807376451      0.00000859287457
| 22> C          -0.69912772414042     -1.38283601323851     -0.00000932512484
| 23> C           0.52347537335926     -0.70523730282103     -0.00001246655685
| 24> C           1.81729612506468     -1.46787011445991     -0.00005598554550
| 25> H           2.43257350979539     -1.22714923235884      0.88628677084497
| 26> H           1.63908285531001     -2.55536142781918      0.00004381576691
| 27> H           2.43241809059381     -1.22729433644522     -0.88654856025073
| 28> C           0.52347672072489      0.70522172319425      0.00000174792219
| 29> C           1.81729888680216      1.46785238267187     -0.00000613025126
| 30> H           2.43252823855944      1.22714967649232     -0.88638787088621
| 31> H           1.63908599746497      2.55534328050588     -0.00007448538319
| 32> H           2.43246782760812      1.22725777649857      0.88644905711652
| 33> C          -0.69912402686095      1.38282421177654      0.00001495362970
| 34> C          -1.91227492778965      0.69598941815697      0.00001994929433
| 35> H          -2.85546951493968      1.25047213510866      0.00003288713645
| 36> H          -0.69794916863420      2.47800578637616      0.00002276384868
| 37> H          -0.69795562041832     -2.47801791250149     -0.00001864212487
| 38> H          -2.85547323506782     -1.25047877737254      0.00001362768912
| 39> *
| 40>
| 41>                          ****END OF INPUT****

CARTESIAN COORDINATES (ANGSTROEM)
---------------------------------
  C     -1.912277   -0.695998    0.000009
  C     -0.699128   -1.382836   -0.000009
  C      0.523475   -0.705237   -0.000012
  C      1.817296   -1.467870   -0.000056
  H      2.432574   -1.227149    0.886287
  H      1.639083   -2.555361    0.000044
  H      2.432418   -1.227294   -0.886549
  C      0.523477    0.705222    0.000002
  C      1.817299    1.467852   -0.000006
  H      2.432528    1.227150   -0.886388
  H      1.639086    2.555343   -0.000074
  H      2.432468    1.227258    0.886449
  C     -0.699124    1.382824    0.000015
  C     -1.912275    0.695989    0.000020
  H     -2.855470    1.250472    0.000033
  H     -0.697949    2.478006    0.000023
  H     -0.697956   -2.478018   -0.000019
  H     -2.855473   -1.250479    0.000014

 Total Charge           Charge          ....    0
 Multiplicity           Mult            ....    1
 Number of Electrons    NEL             ....   58
 Basis Dimension        Dim             ....  598

ORBITAL ENERGIES
----------------

  NO   OCC          E(Eh)            E(eV)
   0   2.0000     -10.045284      -273.3461
   1   2.0000     -10.044898      -273.3356
   2   2.0000     -10.034354      -273.0487
   3   2.0000     -10.033938      -273.0373
   4   2.0000     -10.033359      -273.0216
   5   2.0000     -10.033338      -273.0210
   6   2.0000     -10.026474      -272.8342
   7   2.0000     -10.026463      -272.8339
   8   2.0000      -0.824345       -22.4316
   9   2.0000      -0.741058       -20.1652
  10   2.0000      -0.725922       -19.7534
  11   2.0000      -0.658612       -17.9217
  12   2.0000      -0.634157       -17.2563
  13   2.0000      -0.559334       -15.2202
  14   2.0000      -0.536493       -14.5987
  15   2.0000      -0.462624       -12.5886
  16   2.0000      -0.434887       -11.8339
  17   2.0000      -0.408778       -11.1234
  18   2.0000      -0.398980       -10.8568
  19   2.0000      -0.374976       -10.2036
  20   2.0000      -0.367571       -10.0021
  21   2.0000      -0.360494        -9.8095
  22   2.0000      -0.345695        -9.4068
  23   2.0000      -0.344944        -9.3864
  24   2.0000      -0.325278        -8.8513
  25   2.0000      -0.298876        -8.1328
  26   2.0000      -0.298186        -8.1141
  27   2.0000      -0.230911        -6.2834
  28   2.0000      -0.220345        -5.9959
  29   0.0000      -0.031320        -0.8523
  30   0.0000      -0.030558        -0.8315
  31   0.0000       0.007380         0.2008
  32   0.0000       0.020499         0.5578
  33   0.0000       0.024725         0.6728

MULLIKEN ATOMIC CHARGES
-----------------------
   0 C :   -0.303476
   1 C :   -1.037348
   2 C :    1.100879
   3 C :   -0.662511
   4 H :    0.192983
   5 H :    0.067733
   6 H :    0.193500
   7 C :    1.100875
   8 C :   -0.662513
   9 H :    0.193473
  10 H :    0.067737
  11 H :    0.193004
  12 C :   -1.037358
  13 C :   -0.303464
  14 H :    0.602541
  15 H :   -0.154297
  16 H :   -0.154295
  17 H :    0.602537
Sum of atomic charges:    0.0000000

LOEWDIN ATOMIC CHARGES
----------------------
   0 C :    0.177811
   1 C :    0.198220
   2 C :   -0.123537
   3 C :    0.572935
   4 H :   -0.155089
   5 H :   -0.167687
   6 H :   -0.155040
   7 C :   -0.123538
   8 C :    0.572935
   9 H :   -0.155046
  10 H :   -0.167687
  11 H :   -0.155082
  12 C :    0.198220
  13 C :    0.177811
  14 H :   -0.175744
  15 H :   -0.171869
  16 H :   -0.171869
  17 H :   -0.175744

  Mayer bond orders larger than 0.100000
B(  0-C ,  1-C ) :   0.9169 B(  0-C ,  2-C ) :   0.1811 B(  0-C , 13-C ) :   0.8150
B(  0-C , 17-H ) :   0.4469 B(  1-C ,  2-C ) :   0.3656 B(  1-C ,  7-C ) :  -0.1986
B(  1-C , 16-H ) :   1.6371 B(  1-C , 17-H ) :  -0.1079 B(  2-C ,  3-C ) :   0.1270
B(  2-C ,  7-C ) :   1.1508 B(  2-C ,  8-C ) :   0.1475 B(  2-C , 12-C ) :  -0.1986
B(  2-C , 16-H ) :  -0.1998 B(  3-C ,  4-H ) :   1.0034 B(  3-C ,  5-H ) :   1.0810
B(  3-C ,  6-H ) :   1.0022 B(  3-C ,  7-C ) :   0.1475 B(  7-C ,  8-C ) :   0.1270
B(  7-C , 12-C ) :   0.3655 B(  7-C , 13-C ) :   0.1811 B(  7-C , 15-H ) :  -0.1998
B(  8-C ,  9-H ) :   1.0022 B(  8-C , 10-H ) :   1.0810 B(  8-C , 11-H ) :   1.0033
B( 12-C , 13-C ) :   0.9169 B( 12-C , 14-H ) :  -0.1079 B( 12-C , 15-H ) :   1.6371
B( 13-C , 14-H ) :   0.4469

Dispersion correction           -0.005324754
FINAL SINGLE POINT ENERGY      -310.815225141383

DIPOLE MOMENT
-------------

Method             : SCF
Type of density    : Electron Density
Multiplicity       :   1
Irrep              :   0
Energy             :  -310.8099003872536628 Eh
Relativity type    :
Basis              : AO
                                X                 Y                 Z
Electronic contribution:     -5.142642007       0.000007188      -0.000510647
Nuclear contribution   :      5.585292942      -0.000004943      -0.000112342
                        -----------------------------------------
Total Dipole Moment    :      0.442650935       0.000002246      -0.000622989
                        -----------------------------------------
Magnitude (a.u.)       :      0.442651373
Magnitude (Debye)      :      1.125130376

Rotational constants in cm-1:             0.105881             0.071625             0.043421
Rotational constants in MHz :          3174.222662          2147.253088          1301.724728

                             ****ORCA TERMINATED NORMALLY****
TOTAL RUN TIME: 0 days 0 hours 2 minutes 45 seconds 460 msec
