                         Program Version 6.0.0  -   RELEASE  -
|  1> !PBE0 def2-SV(p) Opt Freq d3 TightSCF SlowConv RIJCOSX defgrid2
|  2>
|  3> %pal
|  4> nprocs 4
|  5> end
|  6>
|  7> %scf
|  8> MaxIter 1500
|  9> end
| 10>
| 11> %maxcore 3000
| 12>
| 13>
| 14>
| 15> * xyz 0 1
| 16> C    -0.6933307    1.3795604    0.0097225
| 17> C    -1.8960215    0.6909084    0.0128020
| 18> C    -1.8960582   -0.6908180   -0.0128029
| 19> C    -0.6934030   -1.3795328   -0.0097290
| 20> C     0.5190588   -0.7044837    0.0086532
| 21> N     1.7348753   -1.3921770   -0.0319405
| 22> H     2.4595702   -0.9636194    0.5263907
| 23> H     1.6398774   -2.3776881    0.1672626
| 24> C     0.5190971    0.7044476   -0.0086661
| 25> N     1.7349439    1.3920777    0.0319191
| 26> H     2.4596410    0.9634337   -0.5263406
| 27> H     1.6400167    2.3775823   -0.1673452
| 28> H    -0.6903030   -2.4611487   -0.0152744
| 29> H    -2.8276181   -1.2376484   -0.0238160
| 30> H    -2.8275528    1.2377874    0.0238244
| 31> H    -0.6901733    2.4611758    0.0152676
| 32> *
| 33>
| 34>                          ****END OF INPUT****
 Total Charge           Charge          ....    0
 Multiplicity           Mult            ....    1
 Number of Electrons    NEL             ....   58
Dispersion correction           -0.013911000
FINAL SINGLE POINT ENERGY      -342.300734070575
Dispersion correction             ... done (  0.1 sec)
Dispersion correction           -0.013871830
FINAL SINGLE POINT ENERGY      -342.302485858460
Dispersion correction             ... done (  0.1 sec)
Dispersion correction           -0.013872427
FINAL SINGLE POINT ENERGY      -342.302723297644
Dispersion correction             ... done (  0.1 sec)
Dispersion correction           -0.013877993
FINAL SINGLE POINT ENERGY      -342.302787740090
Dispersion correction             ... done (  0.1 sec)
Dispersion correction           -0.013879742
FINAL SINGLE POINT ENERGY      -342.302793124690
Dispersion correction             ... done (  0.1 sec)
                    ***********************HURRAY********************

CARTESIAN COORDINATES (ANGSTROEM)
---------------------------------
  C     -0.700406    1.388620    0.014441
  C     -1.912455    0.695673    0.014626
  C     -1.912494   -0.695582   -0.014628
  C     -0.700481   -1.388595   -0.014445
  C      0.517016   -0.707499    0.003444
  N      1.756888   -1.350325   -0.018697
  H      2.430138   -0.928793    0.621288
  H      1.704020   -2.355517    0.116623
  C      0.517055    0.707459   -0.003455
  N      1.756961    1.350218    0.018681
  H      2.430200    0.928622   -0.621273
  H      1.704153    2.355408   -0.116674
  H     -0.694353   -2.483833   -0.014835
  H     -2.854736   -1.250611   -0.026111
  H     -2.854667    1.250755    0.026110
  H     -0.694218    2.483858    0.014833

 Multiplicity           Mult            ....    1
 Number of Electrons    NEL             ....   58
 Basis Dimension        Dim             ....  128

ORBITAL ENERGIES
----------------

  NO   OCC          E(Eh)            E(eV)
   0   2.0000     -14.387367      -391.5001
   1   2.0000     -14.387303      -391.4984
   2   2.0000     -10.260831      -279.2114
   3   2.0000     -10.260459      -279.2013
   4   2.0000     -10.220551      -278.1153
   5   2.0000     -10.220485      -278.1135
   6   2.0000     -10.217014      -278.0191
   7   2.0000     -10.216558      -278.0067
   8   2.0000      -0.952251       -25.9121
   9   2.0000      -0.904533       -24.6136
  10   2.0000      -0.839145       -22.8343
  11   2.0000      -0.739813       -20.1313
  12   2.0000      -0.724211       -19.7068
  13   2.0000      -0.627283       -17.0692
  14   2.0000      -0.601590       -16.3701
  15   2.0000      -0.539116       -14.6701
  16   2.0000      -0.530584       -14.4379
  17   2.0000      -0.504569       -13.7300
  18   2.0000      -0.488771       -13.3001
  19   2.0000      -0.449024       -12.2186
  20   2.0000      -0.430627       -11.7180
  21   2.0000      -0.430139       -11.7047
  22   2.0000      -0.402749       -10.9594
  23   2.0000      -0.364288        -9.9128
  24   2.0000      -0.351605        -9.5677
  25   2.0000      -0.324424        -8.8280
  26   2.0000      -0.313198        -8.5225
  27   2.0000      -0.233322        -6.3490
  28   2.0000      -0.197695        -5.3796
  29   0.0000       0.017683         0.4812
  30   0.0000       0.028641         0.7794
  31   0.0000       0.065058         1.7703
  32   0.0000       0.086060         2.3418
  33   0.0000       0.086300         2.3483

MULLIKEN ATOMIC CHARGES
-----------------------
   0 C :   -0.189091
   1 C :   -0.094699
   2 C :   -0.094700
   3 C :   -0.189089
   4 C :    0.101649
   5 N :   -0.453217
   6 H :    0.251152
   7 H :    0.238968
   8 C :    0.101647
   9 N :   -0.453214
  10 H :    0.251152
  11 H :    0.238968
  12 H :    0.060337
  13 H :    0.084900
  14 H :    0.084900
  15 H :    0.060337
Sum of atomic charges:   -0.0000000

LOEWDIN ATOMIC CHARGES
----------------------
   0 C :   -0.163457
   1 C :   -0.149425
   2 C :   -0.149427
   3 C :   -0.163456
   4 C :   -0.025543
   5 N :   -0.363445
   6 H :    0.228233
   7 H :    0.226672
   8 C :   -0.025541
   9 N :   -0.363444
  10 H :    0.228234
  11 H :    0.226673
  12 H :    0.122110
  13 H :    0.124854
  14 H :    0.124854
  15 H :    0.122110

  Mayer bond orders larger than 0.100000
B(  0-C ,  1-C ) :   1.3483 B(  0-C ,  8-C ) :   1.3906 B(  0-C , 15-H ) :   0.9671
B(  1-C ,  2-C ) :   1.3974 B(  1-C , 14-H ) :   0.9658 B(  2-C ,  3-C ) :   1.3483
B(  2-C , 13-H ) :   0.9658 B(  3-C ,  4-C ) :   1.3906 B(  3-C , 12-H ) :   0.9671
B(  4-C ,  5-N ) :   1.1800 B(  4-C ,  8-C ) :   1.3415 B(  5-N ,  6-H ) :   0.8571
B(  5-N ,  7-H ) :   0.8820 B(  8-C ,  9-N ) :   1.1800 B(  9-N , 10-H ) :   0.8571
B(  9-N , 11-H ) :   0.8820

Dispersion correction           -0.013880249
FINAL SINGLE POINT ENERGY      -342.302793788247

DIPOLE MOMENT
-------------

Method             : SCF
Type of density    : Electron Density
Multiplicity       :   1
Irrep              :   0
Energy             :  -342.2889135392175604 Eh
Relativity type    :
Basis              : AO
                                X                 Y                 Z
Electronic contribution:     -0.441903529       0.000029521       0.000001622
Nuclear contribution   :      1.113968872      -0.000058108      -0.000004171
                        -----------------------------------------
Total Dipole Moment    :      0.672065344      -0.000028586      -0.000002549
                        -----------------------------------------
Magnitude (a.u.)       :      0.672065344
Magnitude (Debye)      :      1.708254348

VIBRATIONAL FREQUENCIES
-----------------------

Scaling factor for frequencies =  1.000000000  (already applied!)

     0:       0.00 cm**-1
     1:       0.00 cm**-1
     2:       0.00 cm**-1
     3:       0.00 cm**-1
     4:       0.00 cm**-1
     5:       0.00 cm**-1
     6:     193.02 cm**-1
     7:     220.34 cm**-1
     8:     290.16 cm**-1
     9:     318.40 cm**-1
    10:     441.70 cm**-1
    11:     456.89 cm**-1
    12:     486.30 cm**-1
    13:     541.79 cm**-1
    14:     577.64 cm**-1
    15:     594.79 cm**-1
    16:     703.89 cm**-1
    17:     738.92 cm**-1
    18:     762.34 cm**-1
    19:     795.04 cm**-1
    20:     797.09 cm**-1
    21:     871.43 cm**-1
    22:     876.82 cm**-1
    23:     930.17 cm**-1
    24:     978.80 cm**-1
    25:    1070.85 cm**-1
    26:    1079.75 cm**-1
    27:    1134.35 cm**-1
    28:    1168.50 cm**-1
    29:    1170.16 cm**-1
    30:    1305.10 cm**-1
    31:    1343.92 cm**-1
    32:    1347.31 cm**-1
    33:    1434.70 cm**-1
    34:    1519.89 cm**-1
    35:    1578.13 cm**-1
    36:    1629.74 cm**-1
    37:    1659.38 cm**-1
    38:    1683.90 cm**-1
    39:    1714.67 cm**-1
    40:    3178.97 cm**-1
    41:    3182.74 cm**-1
    42:    3203.72 cm**-1
    43:    3219.75 cm**-1
    44:    3494.95 cm**-1
    45:    3497.10 cm**-1
    46:    3606.19 cm**-1
    47:    3608.42 cm**-1

IR SPECTRUM
-----------

 Mode   freq       eps      Int      T**2         TX        TY        TZ
       cm**-1   L/(mol*cm) km/mol    a.u.
----------------------------------------------------------------------------
  6:    193.02   0.000032    0.16  0.000052  (-0.007211  0.000009  0.000002)
  7:    220.34   0.004419   22.33  0.006259  (-0.000007 -0.075938 -0.022182)
  8:    290.16   0.001915    9.68  0.002059  (-0.000002  0.000896  0.045369)
  9:    318.40   0.000002    0.01  0.000002  ( 0.001419 -0.000003 -0.000002)
 10:    441.70   0.000013    0.06  0.000009  (-0.000001 -0.001062 -0.002780)
 11:    456.89   0.004033   20.38  0.002755  (-0.000000 -0.025288 -0.045990)
 12:    486.30   0.000605    3.06  0.000388  ( 0.019709 -0.000006 -0.000003)
 13:    541.79   0.001087    5.50  0.000626  ( 0.000003  0.007059  0.024011)
 14:    577.64   0.002522   12.74  0.001362  (-0.036909  0.000001 -0.000000)
 15:    594.79   0.000000    0.00  0.000000  ( 0.000408 -0.000000  0.000000)
 16:    703.89   0.024521  123.92  0.010871  ( 0.000016  0.068350  0.078735)
 17:    738.92   0.029851  150.85  0.012607  (-0.112280  0.000005 -0.000005)
 18:    762.34   0.030210  152.67  0.012366  ( 0.000004 -0.024371 -0.108500)
 19:    795.04   0.035316  178.47  0.013862  (-0.117738  0.000004  0.000005)
 20:    797.09   0.007153   36.15  0.002801  (-0.052920  0.000003  0.000004)
 21:    871.43   0.003176   16.05  0.001138  ( 0.033727 -0.000002  0.000002)
 22:    876.82   0.001937    9.79  0.000690  (-0.000003 -0.012269  0.023216)
 23:    930.17   0.001371    6.93  0.000460  (-0.000000 -0.004447 -0.020979)
 24:    978.80   0.000001    0.01  0.000000  (-0.000599  0.000000  0.000000)
 25:   1070.85   0.001265    6.39  0.000369  ( 0.019201  0.000000  0.000000)
 26:   1079.75   0.000728    3.68  0.000211  ( 0.000001 -0.014496 -0.000597)
 27:   1134.35   0.000250    1.27  0.000069  ( 0.008298 -0.000001 -0.000001)
 28:   1168.50   0.000005    0.02  0.000001  (-0.001147  0.000003 -0.000000)
 29:   1170.16   0.001466    7.41  0.000391  (-0.000001 -0.019748  0.001003)
 30:   1305.10   0.002446   12.36  0.000585  ( 0.000001 -0.024180  0.000538)
 31:   1343.92   0.000079    0.40  0.000018  (-0.000020  0.001769  0.003899)
 32:   1347.31   0.015652   79.10  0.003625  (-0.060211  0.000001 -0.000001)
 33:   1434.70   0.000981    4.96  0.000213  ( 0.014604 -0.000001  0.000000)
 34:   1519.89   0.001173    5.93  0.000241  (-0.000001 -0.013410 -0.007807)
 35:   1578.13   0.023614  119.33  0.004669  ( 0.068333 -0.000001 -0.000000)
 36:   1629.74   0.009709   49.07  0.001859  (-0.000001  0.030538 -0.030438)
 37:   1659.38   0.015092   76.27  0.002838  (-0.053275  0.000001  0.000001)
 38:   1683.90   0.003057   15.45  0.000567  ( 0.023803 -0.000001  0.000000)
 39:   1714.67   0.011377   57.49  0.002071  (-0.000004 -0.043941  0.011823)
 40:   3178.97   0.004007   20.25  0.000393  ( 0.000000  0.019832 -0.000166)
 41:   3182.74   0.000783    3.95  0.000077  (-0.008759 -0.000001  0.000000)
 42:   3203.72   0.002748   13.89  0.000268  ( 0.000000 -0.016356 -0.000370)
 43:   3219.75   0.002425   12.26  0.000235  (-0.015332 -0.000000  0.000000)
 44:   3494.95   0.002209   11.17  0.000197  ( 0.000004  0.000898  0.014017)
 45:   3497.10   0.002930   14.81  0.000261  ( 0.016170 -0.000001 -0.000004)
 46:   3606.19   0.007426   37.53  0.000643  (-0.000004 -0.025085 -0.003650)
 47:   3608.42   0.000253    1.28  0.000022  (-0.004681  0.000017  0.000002)

--------------------------
THERMOCHEMISTRY AT 298.15K
--------------------------

Temperature         ...   298.15 K
Pressure            ...     1.00 atm
Total Mass          ...   108.14 AMU
Quasi RRHO          ...     True
Cut-Off Frequency   ...     1.00 cm^-1

Throughout the following assumptions are being made:
  (1) The electronic state is orbitally nondegenerate
  (2) There are no thermally accessible electronically excited states
  (3) Hindered rotations indicated by low frequency modes are not
      treated as such but are treated as vibrations and this may
      cause some error
  (4) All equations used are the standard statistical mechanics
      equations for an ideal gas
  (5) All vibrations are strictly harmonic

freq.     193.02  E(vib)   ...       0.36
freq.     220.34  E(vib)   ...       0.33
freq.     290.16  E(vib)   ...       0.27
freq.     318.40  E(vib)   ...       0.25
freq.     441.70  E(vib)   ...       0.17
freq.     456.89  E(vib)   ...       0.16
freq.     486.30  E(vib)   ...       0.15
freq.     541.79  E(vib)   ...       0.12
freq.     577.64  E(vib)   ...       0.11
freq.     594.79  E(vib)   ...       0.10
freq.     703.89  E(vib)   ...       0.07
freq.     738.92  E(vib)   ...       0.06
freq.     762.34  E(vib)   ...       0.06
freq.     795.04  E(vib)   ...       0.05
freq.     797.09  E(vib)   ...       0.05
freq.     871.43  E(vib)   ...       0.04
freq.     876.82  E(vib)   ...       0.04
freq.     930.17  E(vib)   ...       0.03
freq.     978.80  E(vib)   ...       0.03
freq.    1070.85  E(vib)   ...       0.02
freq.    1079.75  E(vib)   ...       0.02
freq.    1134.35  E(vib)   ...       0.01
freq.    1168.50  E(vib)   ...       0.01
freq.    1170.16  E(vib)   ...       0.01
freq.    1305.10  E(vib)   ...       0.01
freq.    1343.92  E(vib)   ...       0.01
freq.    1347.31  E(vib)   ...       0.01
freq.    1434.70  E(vib)   ...       0.00
freq.    1519.89  E(vib)   ...       0.00
freq.    1578.13  E(vib)   ...       0.00
freq.    1629.74  E(vib)   ...       0.00
freq.    1659.38  E(vib)   ...       0.00
freq.    1683.90  E(vib)   ...       0.00
freq.    1714.67  E(vib)   ...       0.00
freq.    3178.97  E(vib)   ...       0.00
freq.    3182.74  E(vib)   ...       0.00
freq.    3203.72  E(vib)   ...       0.00
freq.    3219.75  E(vib)   ...       0.00
freq.    3494.95  E(vib)   ...       0.00
freq.    3497.10  E(vib)   ...       0.00
freq.    3606.19  E(vib)   ...       0.00
freq.    3608.42  E(vib)   ...       0.00

------------
INNER ENERGY
------------

The inner energy is: U= E(el) + E(ZPE) + E(vib) + E(rot) + E(trans)
    E(el)   - is the total energy from the electronic structure calculation
              = E(kin-el) + E(nuc-el) + E(el-el) + E(nuc-nuc)
    E(ZPE)  - the the zero temperature vibrational energy from the frequency calculation
    E(vib)  - the the finite temperature correction to E(ZPE) due to population
              of excited vibrational states
    E(rot)  - is the rotational thermal energy
    E(trans)- is the translational thermal energy

Summary of contributions to the inner energy U:
Electronic energy                ...   -342.30279379 Eh
Zero point energy                ...      0.13534069 Eh      84.93 kcal/mol
Thermal vibrational correction   ...      0.00405940 Eh       2.55 kcal/mol
Thermal rotational correction    ...      0.00141627 Eh       0.89 kcal/mol
Thermal translational correction ...      0.00141627 Eh       0.89 kcal/mol
-----------------------------------------------------------------------
Total thermal energy                   -342.16056116 Eh

Summary of corrections to the electronic energy:
(perhaps to be used in another calculation)
Total thermal correction                  0.00689194 Eh       4.32 kcal/mol
Non-thermal (ZPE) correction              0.13534069 Eh      84.93 kcal/mol
-----------------------------------------------------------------------
Total correction                          0.14223263 Eh      89.25 kcal/mol

--------
ENTHALPY
--------

The enthalpy is H = U + kB*T
                kB is Boltzmann's constant
Total thermal energy              ...   -342.16056116 Eh
Thermal Enthalpy correction       ...      0.00094421 Eh       0.59 kcal/mol
-----------------------------------------------------------------------
Total Enthalpy                    ...   -342.15961695 Eh

Note: Rotational entropy computed according to Herzberg
Infrared and Raman Spectra, Chapter V,1, Van Nostrand Reinhold, 1945
Point Group:  C2, Symmetry Number:   2
Rotational constants in cm-1:     0.112095     0.073765     0.044684

Vibrational entropy computed according to the QRRHO of S. Grimme
Chem.Eur.J. 2012 18 9955 using a reference frequency of 100.0 cm-1

-------
ENTROPY
-------

The entropy contributions are T*S = T*(S(el)+S(vib)+S(rot)+S(trans))
     S(el)   - electronic entropy
     S(vib)  - vibrational entropy
     S(rot)  - rotational entropy
     S(trans)- translational entropy
The entropies will be listed as multiplied by the temperature to get
units of energy

Electronic entropy                ...      0.00000000 Eh      0.00 kcal/mol
Vibrational entropy               ...      0.00614966 Eh      3.86 kcal/mol
Rotational entropy                ...      0.01258748 Eh      7.90 kcal/mol
Translational entropy             ...      0.01898213 Eh     11.91 kcal/mol
-----------------------------------------------------------------------
Final entropy term                ...      0.03771927 Eh     23.67 kcal/mol

In case the symmetry of your molecule has not been determined correctly
or in case you have a reason to use a different symmetry number we print
out the resulting rotational entropy values for sn=1,12:

 non-linear molecules -----------------------------------
|  sn= 1 | S(rot)=       0.01324193 Eh      8.31 kcal/mol|
|  sn= 2 | S(rot)=       0.01258748 Eh      7.90 kcal/mol|
|  sn= 3 | S(rot)=       0.01220465 Eh      7.66 kcal/mol|
|  sn= 4 | S(rot)=       0.01193302 Eh      7.49 kcal/mol|
|  sn= 5 | S(rot)=       0.01172233 Eh      7.36 kcal/mol|
|  sn= 6 | S(rot)=       0.01155019 Eh      7.25 kcal/mol|
|  sn= 7 | S(rot)=       0.01140464 Eh      7.16 kcal/mol|
|  sn= 8 | S(rot)=       0.01127857 Eh      7.08 kcal/mol|
|  sn= 9 | S(rot)=       0.01116736 Eh      7.01 kcal/mol|
|  sn=10 | S(rot)=       0.01106788 Eh      6.95 kcal/mol|
|  sn=11 | S(rot)=       0.01097789 Eh      6.89 kcal/mol|
|  sn=12 | S(rot)=       0.01089573 Eh      6.84 kcal/mol|
 linear molecules ---------------------------------------
|  Dinfh | S(rot)=       0.00826045 Eh      5.18 kcal/mol|
|  Cinfv | S(rot)=       0.00891491 Eh      5.59 kcal/mol|
 --------------------------------------------------------

-------------------
GIBBS FREE ENERGY
-------------------

The Gibbs free energy is G = H - T*S

                             ****ORCA TERMINATED NORMALLY****
TOTAL RUN TIME: 0 days 0 hours 6 minutes 48 seconds 151 msec
