                         Program Version 6.0.0  -   RELEASE  -
|  1> !r2SCAN aug-cc-pVTZ d3 TightSCF SlowConv RIJCOSX defgrid2
|  2>
|  3> %pal
|  4> nprocs 4
|  5> end
|  6>
|  7> %scf
|  8> MaxIter 1500
|  9> end
| 10>
| 11> %maxcore 3000
| 12>
| 13> !CPCM
| 14> %cpcm smd true
| 15> SMDsolvent "MeCN"
| 16> surfacetype gepol_ses
| 17> rsolv 2.19
| 18> end
| 19>
| 20> * xyz 0 1
| 21>   C           0.41599319251032     -1.69346177862022     -0.02279161454558
| 22>   C          -0.98199729558990     -1.81472676429341     -0.05134821794403
| 23>   C          -1.70677603729443     -0.64308652071241     -0.08326300415314
| 24>   C          -1.07495769550450      0.60196976211576     -0.08130065571313
| 25>   C           0.29269190626036      0.73274812090553     -0.04930153158760
| 26>   C           1.06792223663687     -0.45226147551338     -0.02238323387356
| 27>   C           2.53306012033092     -0.42784097336228      0.00411549390745
| 28>   C           3.33599029031163      0.64787454860086     -0.01298712184471
| 29>   C           4.82698252758222      0.59436334411775      0.01761658566321
| 30>   H           5.19519744878890     -0.44486528089433      0.05467264909477
| 31>   H           5.26493429112435      1.08145794661971     -0.87426846583011
| 32>   H           5.23044002906813      1.13215001785477      0.89657522514024
| 33>   H           2.89219341939334      1.65177321714680     -0.05310300701833
| 34>   H           3.00616156242134     -1.41849503169999      0.04140787797653
| 35>   H           0.75060774881743      1.72311804458948     -0.04152460092806
| 36>   O          -2.02238582974935      1.57759788099539     -0.08083816246866
| 37>   C          -3.25372937520391      0.92161898008569     -0.29920279195714
| 38>   H          -3.58643890672075      1.09093447235186     -1.34427577812255
| 39>   H          -4.00651814330382      1.30024105404657      0.41140327759572
| 40>   O          -3.05288326673628     -0.46068315840969     -0.08496008668725
| 41>   H          -1.47569728947849     -2.78849336669007     -0.04656446685497
| 42>   H           1.02272506633562     -2.60351753923440     -0.00236886984910
| 43> *
| 44>
| 45>                          ****END OF INPUT****

CARTESIAN COORDINATES (ANGSTROEM)
---------------------------------
  C      0.415993   -1.693462   -0.022792
  C     -0.981997   -1.814727   -0.051348
  C     -1.706776   -0.643087   -0.083263
  C     -1.074958    0.601970   -0.081301
  C      0.292692    0.732748   -0.049302
  C      1.067922   -0.452261   -0.022383
  C      2.533060   -0.427841    0.004115
  C      3.335990    0.647875   -0.012987
  C      4.826983    0.594363    0.017617
  H      5.195197   -0.444865    0.054673
  H      5.264934    1.081458   -0.874268
  H      5.230440    1.132150    0.896575
  H      2.892193    1.651773   -0.053103
  H      3.006162   -1.418495    0.041408
  H      0.750608    1.723118   -0.041525
  O     -2.022386    1.577598   -0.080838
  C     -3.253729    0.921619   -0.299203
  H     -3.586439    1.090934   -1.344276
  H     -4.006518    1.300241    0.411403
  O     -3.052883   -0.460683   -0.084960
  H     -1.475697   -2.788493   -0.046564
  H      1.022725   -2.603518   -0.002369

 Total Charge           Charge          ....    0
 Multiplicity           Mult            ....    1
 Number of Electrons    NEL             ....   86
 Basis Dimension        Dim             ....  782

ORBITAL ENERGIES
----------------

  NO   OCC          E(Eh)            E(eV)
   0   2.0000     -19.006851      -517.2027
   1   2.0000     -19.006084      -517.1819
   2   2.0000     -10.147317      -276.1225
   3   2.0000     -10.101373      -274.8723
   4   2.0000     -10.100131      -274.8385
   5   2.0000     -10.052277      -273.5364
   6   2.0000     -10.045027      -273.3391
   7   2.0000     -10.042928      -273.2820
   8   2.0000     -10.039721      -273.1947
   9   2.0000     -10.036947      -273.1192
  10   2.0000     -10.034450      -273.0513
  11   2.0000     -10.027056      -272.8501
  12   2.0000      -1.104673       -30.0597
  13   2.0000      -1.012117       -27.5411
  14   2.0000      -0.832381       -22.6502
  15   2.0000      -0.767958       -20.8972
  16   2.0000      -0.727325       -19.7915
  17   2.0000      -0.720698       -19.6112
  18   2.0000      -0.662360       -18.0237
  19   2.0000      -0.628258       -17.0958
  20   2.0000      -0.594394       -16.1743
  21   2.0000      -0.585422       -15.9302
  22   2.0000      -0.523171       -14.2362
  23   2.0000      -0.494040       -13.4435
  24   2.0000      -0.490232       -13.3399
  25   2.0000      -0.483075       -13.1451
  26   2.0000      -0.458169       -12.4674
  27   2.0000      -0.414867       -11.2891
  28   2.0000      -0.410714       -11.1761
  29   2.0000      -0.399975       -10.8839
  30   2.0000      -0.377166       -10.2632
  31   2.0000      -0.369878       -10.0649
  32   2.0000      -0.365635        -9.9494
  33   2.0000      -0.362768        -9.8714
  34   2.0000      -0.361005        -9.8234
  35   2.0000      -0.340689        -9.2706
  36   2.0000      -0.331475        -9.0199
  37   2.0000      -0.314965        -8.5706
  38   2.0000      -0.308847        -8.4041
  39   2.0000      -0.308134        -8.3848
  40   2.0000      -0.251444        -6.8421
  41   2.0000      -0.220023        -5.9871
  42   2.0000      -0.181065        -4.9270
  43   0.0000      -0.056727        -1.5436
  44   0.0000      -0.029832        -0.8118
  45   0.0000       0.006117         0.1665
  46   0.0000       0.018259         0.4969
  47   0.0000       0.021309         0.5798

MULLIKEN ATOMIC CHARGES
-----------------------
   0 C :   -1.109205
   1 C :   -0.643712
   2 C :    0.830089
   3 C :    0.946310
   4 C :   -0.666444
   5 C :    1.750167
   6 C :   -0.223791
   7 C :   -0.027735
   8 C :   -0.855050
   9 H :    0.242444
  10 H :    0.144289
  11 H :    0.152892
  12 H :    0.058942
  13 H :   -0.114635
  14 H :   -0.027381
  15 O :   -0.691095
  16 C :   -0.101823
  17 H :    0.235056
  18 H :    0.264237
  19 O :   -0.717672
  20 H :    0.524293
  21 H :    0.029821
Sum of atomic charges:    0.0000000

LOEWDIN ATOMIC CHARGES
----------------------
   0 C :    0.184952
   1 C :    0.224537
   2 C :   -0.406580
   3 C :   -0.399813
   4 C :    0.233438
   5 C :   -0.166295
   6 C :    0.189348
   7 C :    0.193404
   8 C :    0.548743
   9 H :   -0.174980
  10 H :   -0.165461
  11 H :   -0.165403
  12 H :   -0.186859
  13 H :   -0.186227
  14 H :   -0.178163
  15 O :    0.619533
  16 C :   -0.154556
  17 H :   -0.139438
  18 H :   -0.145882
  19 O :    0.617534
  20 H :   -0.166899
  21 H :   -0.174930

  Mayer bond orders larger than 0.100000
B(  0-C ,  1-C ) :   1.0420 B(  0-C ,  2-C ) :  -0.2209 B(  0-C ,  3-C ) :  -0.2019
B(  0-C ,  4-C ) :  -0.1415 B(  0-C ,  5-C ) :   0.1413 B(  0-C ,  7-C ) :   0.3095
B(  0-C , 21-H ) :   1.4080 B(  1-C ,  2-C ) :   0.5878 B(  1-C ,  4-C ) :  -0.2053
B(  1-C ,  5-C ) :   0.1882 B(  1-C , 20-H ) :   0.3722 B(  1-C , 21-H ) :  -0.1502
B(  2-C ,  3-C ) :   1.1708 B(  2-C ,  6-C ) :   0.1517 B(  2-C , 19-O ) :   0.2504
B(  3-C ,  4-C ) :   0.2747 B(  3-C ,  5-C ) :   0.5115 B(  3-C ,  7-C ) :  -0.1022
B(  3-C , 14-H ) :  -0.1952 B(  3-C , 15-O ) :   0.1505 B(  3-C , 19-O ) :   0.1077
B(  4-C ,  6-C ) :   0.1903 B(  4-C ,  7-C ) :  -0.1191 B(  4-C , 12-H ) :  -0.1629
B(  4-C , 14-H ) :   1.3459 B(  4-C , 15-O ) :   0.1970 B(  5-C ,  6-C ) :  -0.1364
B(  5-C ,  7-C ) :  -0.1678 B(  5-C ,  8-C ) :   0.1211 B(  5-C , 12-H ) :  -0.2188
B(  5-C , 13-H ) :  -0.1520 B(  5-C , 14-H ) :  -0.2895 B(  5-C , 21-H ) :  -0.2056
B(  6-C ,  7-C ) :   0.9207 B(  6-C , 13-H ) :   1.4144 B(  7-C ,  8-C ) :   0.4125
B(  7-C , 10-H ) :  -0.1114 B(  7-C , 11-H ) :  -0.1126 B(  7-C , 12-H ) :   1.4684
B(  7-C , 13-H ) :  -0.1688 B(  8-C ,  9-H ) :   0.9427 B(  8-C , 10-H ) :   1.0969
B(  8-C , 11-H ) :   1.0859 B(  8-C , 12-H ) :  -0.1909 B( 15-O , 16-C ) :   0.8846
B( 15-O , 19-O ) :   0.1107 B( 16-C , 17-H ) :   0.9216 B( 16-C , 18-H ) :   0.9266
B( 16-C , 19-O ) :   0.8859

Dispersion correction           -0.006896098
FINAL SINGLE POINT ENERGY      -537.416011109532

DIPOLE MOMENT
-------------

Method             : SCF
Type of density    : Electron Density
Multiplicity       :   1
Irrep              :   0
Energy             :  -537.4091150110449462 Eh
Relativity type    :
Basis              : AO
                                X                 Y                 Z
Electronic contribution:    -13.635620805      -0.438756370       0.112495714
Nuclear contribution   :     13.408506820       0.685068586      -0.272537228
                        -----------------------------------------
Total Dipole Moment    :     -0.227113985       0.246312216      -0.160041514
                        -----------------------------------------
Magnitude (a.u.)       :      0.371300089
Magnitude (Debye)      :      0.943769823

Rotational constants in cm-1:             0.089233             0.016100             0.013721
Rotational constants in MHz :          2675.143581           482.663889           411.333800

                             ****ORCA TERMINATED NORMALLY****
TOTAL RUN TIME: 0 days 0 hours 3 minutes 35 seconds 390 msec
