                         Program Version 6.0.0  -   RELEASE  -
|  1> !B3LYP aug-cc-pVTZ d3 TightSCF SlowConv RIJCOSX defgrid2
|  2>
|  3> %pal
|  4> nprocs 4
|  5> end
|  6>
|  7> %scf
|  8> MaxIter 1500
|  9> end
| 10>
| 11> %maxcore 3000
| 12>
| 13> !CPCM
| 14> %cpcm smd true
| 15> SMDsolvent "MeCN"
| 16> surfacetype gepol_ses
| 17> rsolv 2.19
| 18> end
| 19>
| 20> * xyz 1 2
| 21> C           2.57979434838040     -0.76512868779033      0.55002877373972
| 22> N           1.26500932172402     -1.28908125363632      0.40636602507995
| 23> C           0.28298609020251     -0.62522563405020     -0.18777766408559
| 24> N           0.31055121241113      0.70973986743819     -0.21944975029898
| 25> C          -0.90428464054798      1.50462363713153     -0.44239867601191
| 26> C          -2.03947642318260      1.21762022221086      0.53873406977095
| 27> C          -2.86207876844258     -0.03194236210921      0.24124470818338
| 28> C          -2.09231646642057     -1.34422284732392      0.30081277590326
| 29> C          -0.89800263393673     -1.40686847310809     -0.66426598959003
| 30> H          -1.19352492058052     -1.04767852417754     -1.66637286512155
| 31> H          -0.55567841992770     -2.44756644418100     -0.76734795095617
| 32> H          -1.73641294806257     -1.54754065839741      1.32696955727058
| 33> H          -2.77055233723731     -2.17340424344339      0.04048078954003
| 34> H          -3.70277523981103     -0.07756392292857      0.95370276319110
| 35> H          -3.31960998926737      0.07384959946049     -0.76068861915501
| 36> H          -1.62677902226913      1.18604117824051      1.56422468629433
| 37> H          -2.70692750664589      2.09548743827220      0.50583543871622
| 38> H          -1.23343592081792      1.34322694259980     -1.48570258502121
| 39> H          -0.59336721164102      2.55553341754968     -0.36087201839100
| 40> C           1.54294297274965      1.42951819328861      0.10261663203758
| 41> C           2.75435971769682      0.56347028127833     -0.16667570355996
| 42> H           3.66676062867917      1.07905197663072      0.17154765035364
| 43> H           2.85358487208654      0.39538376428371     -1.25327533388472
| 44> H           1.55803196576022      2.33719006220635     -0.52185668580850
| 45> H           1.49212710050547      1.76061659958086      1.15811318961915
| 46> H           2.78164201792086     -0.70742891166271      1.63950028346109
| 47> H           3.28595160067412     -1.53996281736316      0.18807279872366
| 48> *
| 49>
| 50>                          ****END OF INPUT****

CARTESIAN COORDINATES (ANGSTROEM)
---------------------------------
  C      2.579794   -0.765129    0.550029
  N      1.265009   -1.289081    0.406366
  C      0.282986   -0.625226   -0.187778
  N      0.310551    0.709740   -0.219450
  C     -0.904285    1.504624   -0.442399
  C     -2.039476    1.217620    0.538734
  C     -2.862079   -0.031942    0.241245
  C     -2.092316   -1.344223    0.300813
  C     -0.898003   -1.406868   -0.664266
  H     -1.193525   -1.047679   -1.666373
  H     -0.555678   -2.447566   -0.767348
  H     -1.736413   -1.547541    1.326970
  H     -2.770552   -2.173404    0.040481
  H     -3.702775   -0.077564    0.953703
  H     -3.319610    0.073850   -0.760689
  H     -1.626779    1.186041    1.564225
  H     -2.706928    2.095487    0.505835
  H     -1.233436    1.343227   -1.485703
  H     -0.593367    2.555533   -0.360872
  C      1.542943    1.429518    0.102617
  C      2.754360    0.563470   -0.166676
  H      3.666761    1.079052    0.171548
  H      2.853585    0.395384   -1.253275
  H      1.558032    2.337190   -0.521857
  H      1.492127    1.760617    1.158113
  H      2.781642   -0.707429    1.639500
  H      3.285952   -1.539963    0.188073

 Total Charge           Charge          ....    1
 Multiplicity           Mult            ....    2
 Number of Electrons    NEL             ....   83
 Basis Dimension        Dim             ....  874

ORBITAL ENERGIES
----------------
                 SPIN UP ORBITALS
  NO   OCC          E(Eh)            E(eV)
   0   1.0000     -14.427289      -392.5865
   1   1.0000     -14.380271      -391.3071
   2   1.0000     -10.294966      -280.1403
   3   1.0000     -10.231688      -278.4184
   4   1.0000     -10.228696      -278.3370
   5   1.0000     -10.224005      -278.2093
   6   1.0000     -10.194741      -277.4130
   7   1.0000     -10.188151      -277.2337
   8   1.0000     -10.181628      -277.0562
   9   1.0000     -10.178939      -276.9830
  10   1.0000     -10.171018      -276.7675
  11   1.0000      -1.046666       -28.4812
  12   1.0000      -0.949501       -25.8372
  13   1.0000      -0.839662       -22.8484
  14   1.0000      -0.805634       -21.9224
  15   1.0000      -0.780896       -21.2493
  16   1.0000      -0.717420       -19.5220
  17   1.0000      -0.704167       -19.1614
  18   1.0000      -0.688428       -18.7331
  19   1.0000      -0.619178       -16.8487
  20   1.0000      -0.586970       -15.9723
  21   1.0000      -0.544746       -14.8233
  22   1.0000      -0.542126       -14.7520
  23   1.0000      -0.522780       -14.2256
  24   1.0000      -0.506954       -13.7949
  25   1.0000      -0.469272       -12.7695
  26   1.0000      -0.465848       -12.6764
  27   1.0000      -0.458449       -12.4750
  28   1.0000      -0.446498       -12.1498
  29   1.0000      -0.442443       -12.0395
  30   1.0000      -0.417503       -11.3608
  31   1.0000      -0.415340       -11.3020
  32   1.0000      -0.413432       -11.2500
  33   1.0000      -0.388883       -10.5821
  34   1.0000      -0.380484       -10.3535
  35   1.0000      -0.361781        -9.8446
  36   1.0000      -0.348409        -9.4807
  37   1.0000      -0.333837        -9.0842
  38   1.0000      -0.331052        -9.0084
  39   1.0000      -0.325397        -8.8545
  40   1.0000      -0.308958        -8.4072
  41   1.0000      -0.286431        -7.7942
  42   0.0000      -0.039556        -1.0764
  43   0.0000      -0.007418        -0.2018
  44   0.0000       0.003248         0.0884
  45   0.0000       0.005830         0.1587
  46   0.0000       0.006857         0.1866

                 SPIN DOWN ORBITALS
  NO   OCC          E(Eh)            E(eV)
   0   1.0000     -14.419222      -392.3670
   1   1.0000     -14.366644      -390.9363
   2   1.0000     -10.297183      -280.2006
   3   1.0000     -10.231895      -278.4240
   4   1.0000     -10.228884      -278.3421
   5   1.0000     -10.224134      -278.2128
   6   1.0000     -10.194485      -277.4060
   7   1.0000     -10.188055      -277.2311
   8   1.0000     -10.181226      -277.0453
   9   1.0000     -10.179004      -276.9848
  10   1.0000     -10.171015      -276.7674
  11   1.0000      -1.032501       -28.0958
  12   1.0000      -0.925849       -25.1936
  13   1.0000      -0.838770       -22.8241
  14   1.0000      -0.804258       -21.8850
  15   1.0000      -0.777887       -21.1674
  16   1.0000      -0.714380       -19.4393
  17   1.0000      -0.698610       -19.0101
  18   1.0000      -0.685524       -18.6541
  19   1.0000      -0.616777       -16.7834
  20   1.0000      -0.584089       -15.8939
  21   1.0000      -0.539689       -14.6857
  22   1.0000      -0.537078       -14.6146
  23   1.0000      -0.514797       -14.0083
  24   1.0000      -0.497258       -13.5311
  25   1.0000      -0.465456       -12.6657
  26   1.0000      -0.458654       -12.4806
  27   1.0000      -0.454166       -12.3585
  28   1.0000      -0.440330       -11.9820
  29   1.0000      -0.436655       -11.8820
  30   1.0000      -0.414650       -11.2832
  31   1.0000      -0.412448       -11.2233
  32   1.0000      -0.404031       -10.9942
  33   1.0000      -0.382253       -10.4016
  34   1.0000      -0.376325       -10.2403
  35   1.0000      -0.359190        -9.7741
  36   1.0000      -0.345790        -9.4094
  37   1.0000      -0.333448        -9.0736
  38   1.0000      -0.330394        -8.9905
  39   1.0000      -0.319441        -8.6924
  40   1.0000      -0.288690        -7.8557
  41   0.0000      -0.171333        -4.6622
  42   0.0000      -0.022709        -0.6179
  43   0.0000      -0.006888        -0.1874
  44   0.0000       0.003425         0.0932
  45   0.0000       0.005981         0.1628

MULLIKEN ATOMIC CHARGES AND SPIN POPULATIONS
--------------------------------------------
   0 C :   -0.225299   -0.021129
   1 N :   -0.640313    0.657469
   2 C :    0.486120   -0.153398
   3 N :    0.480554    0.352258
   4 C :   -0.365550   -0.034646
   5 C :   -0.240987    0.023907
   6 C :   -0.201874    0.000495
   7 C :   -0.359845   -0.004352
   8 C :   -0.020890    0.029246
   9 H :    0.158828   -0.003717
  10 H :    0.080886    0.005400
  11 H :    0.118002    0.002039
  12 H :    0.141722   -0.000763
  13 H :    0.199331   -0.000534
  14 H :    0.097273   -0.000954
  15 H :    0.119574    0.003423
  16 H :    0.134806    0.002417
  17 H :    0.223769    0.026227
  18 H :    0.166781    0.000005
  19 C :   -0.353295   -0.029054
  20 C :   -0.202771    0.011007
  21 H :    0.230174    0.003211
  22 H :    0.081393   -0.002837
  23 H :    0.231772    0.016449
  24 H :    0.245058    0.018594
  25 H :    0.202187    0.044862
  26 H :    0.212593    0.054376
Sum of atomic charges         :    1.0000000

LOEWDIN ATOMIC CHARGES AND SPIN POPULATIONS
-------------------------------------------
   0 C :    0.167726    0.109896
   1 N :    0.522446    0.426304
   2 C :   -0.298998    0.077570
   3 N :    0.356931    0.210322
   4 C :    0.271620    0.035566
   5 C :    0.316995    0.009847
   6 C :    0.286120    0.001388
   7 C :    0.299497   -0.000970
   8 C :    0.317585   -0.001128
   9 H :   -0.114358   -0.001042
  10 H :   -0.130702    0.002973
  11 H :   -0.120202   -0.000206
  12 H :   -0.121909   -0.000221
  13 H :   -0.124282    0.000213
  14 H :   -0.123481    0.000230
  15 H :   -0.113225    0.001230
  16 H :   -0.118961    0.001785
  17 H :   -0.097330    0.011281
  18 H :   -0.122384    0.000631
  19 C :    0.261176    0.035696
  20 C :    0.320508    0.007745
  21 H :   -0.109120    0.001341
  22 H :   -0.112788   -0.000365
  23 H :   -0.105236    0.007598
  24 H :   -0.082236    0.010207
  25 H :   -0.113830    0.024291
  26 H :   -0.111563    0.027818

  Mayer bond orders larger than 0.100000
B(  0-C ,  1-N ) :   0.9407 B(  0-C , 20-C ) :   0.9405 B(  0-C , 25-H ) :   0.9090
B(  0-C , 26-H ) :   0.9139 B(  1-N ,  2-C ) :   0.3799 B(  1-N ,  3-N ) :   0.1285
B(  1-N ,  8-C ) :   0.1572 B(  2-C ,  3-N ) :   1.0465 B(  2-C ,  8-C ) :   0.5610
B(  3-N ,  4-C ) :   0.8641 B(  3-N , 19-C ) :   0.6128 B(  4-C ,  5-C ) :   0.9471
B(  4-C , 17-H ) :   0.9346 B(  4-C , 18-H ) :   0.9995 B(  5-C ,  6-C ) :   0.9232
B(  5-C , 15-H ) :   1.0245 B(  5-C , 16-H ) :   0.9825 B(  6-C ,  7-C ) :   0.9104
B(  6-C , 13-H ) :   0.9576 B(  6-C , 14-H ) :   1.0448 B(  7-C ,  8-C ) :   0.9969
B(  7-C , 11-H ) :   1.0069 B(  7-C , 12-H ) :   1.0211 B(  8-C ,  9-H ) :   0.9860
B(  8-C , 10-H ) :   1.0133 B( 19-C , 20-C ) :   0.9713 B( 19-C , 23-H ) :   0.9913
B( 19-C , 24-H ) :   0.9094 B( 20-C , 21-H ) :   0.8952 B( 20-C , 22-H ) :   1.0915

Dispersion correction           -0.048986016
FINAL SINGLE POINT ENERGY      -461.823003051957

DIPOLE MOMENT
-------------

Method             : SCF
Type of density    : Electron Density
Multiplicity       :   2
Irrep              :   0
Energy             :  -461.7740170355349392 Eh
Relativity type    :
Basis              : AO
                                X                 Y                 Z
Electronic contribution:      4.419919264      -1.714119923      -0.459585391
Nuclear contribution   :     -3.417837470       2.910727643       0.034174869
                        -----------------------------------------
Total Dipole Moment    :      1.002081794       1.196607720      -0.425410522
                        -----------------------------------------
Magnitude (a.u.)       :      1.617718167
Magnitude (Debye)      :      4.111912803

Rotational constants in cm-1:             0.070248             0.029206             0.022723
Rotational constants in MHz :          2105.969827           875.585908           681.207949

                             ****ORCA TERMINATED NORMALLY****
TOTAL RUN TIME: 0 days 0 hours 11 minutes 24 seconds 428 msec
