                         Program Version 6.0.0  -   RELEASE  -
|  1> !B3LYP aug-cc-pVTZ d3 TightSCF SlowConv RIJCOSX defgrid2
|  2>
|  3> %pal
|  4> nprocs 4
|  5> end
|  6>
|  7> %scf
|  8> MaxIter 1500
|  9> end
| 10>
| 11> %maxcore 3000
| 12>
| 13> !CPCM
| 14> %cpcm smd true
| 15> SMDsolvent "MeCN"
| 16> surfacetype gepol_ses
| 17> rsolv 2.19
| 18> end
| 19>
| 20> * xyz 0 1
| 21> C           0.40845561541467      1.09654851965361      0.00002153601786
| 22> C           1.22157048240356     -0.02055925058461     -0.00001124146046
| 23> C           0.31627509804411     -1.10552037144195      0.00002465926407
| 24> N          -0.94362721428629     -0.69407804717258     -0.00003818172667
| 25> N          -0.86222699991342      0.63149016796153     -0.00002192547512
| 26> H          -1.71469887339655      1.17729476555237     -0.00003850624553
| 27> H           0.53586137989645     -2.17396458772866      0.00003582780905
| 28> H           2.30976241169899     -0.04700402205514     -0.00001651155181
| 29> H           0.63234930013847      2.16236532581542      0.00003934336862
| 30> *
| 31>
| 32>                          ****END OF INPUT****

CARTESIAN COORDINATES (ANGSTROEM)
---------------------------------
  C      0.408456    1.096549    0.000022
  C      1.221570   -0.020559   -0.000011
  C      0.316275   -1.105520    0.000025
  N     -0.943627   -0.694078   -0.000038
  N     -0.862227    0.631490   -0.000022
  H     -1.714699    1.177295   -0.000039
  H      0.535861   -2.173965    0.000036
  H      2.309762   -0.047004   -0.000017
  H      0.632349    2.162365    0.000039

 Total Charge           Charge          ....    0
 Multiplicity           Mult            ....    1
 Number of Electrons    NEL             ....   36
 Basis Dimension        Dim             ....  322

ORBITAL ENERGIES
----------------

  NO   OCC          E(Eh)            E(eV)
   0   2.0000     -14.387799      -391.5119
   1   2.0000     -14.336496      -390.1159
   2   2.0000     -10.206595      -277.7356
   3   2.0000     -10.190063      -277.2857
   4   2.0000     -10.166786      -276.6523
   5   2.0000      -1.054056       -28.6823
   6   2.0000      -0.815965       -22.2035
   7   2.0000      -0.779114       -21.2008
   8   2.0000      -0.604122       -16.4390
   9   2.0000      -0.595830       -16.2134
  10   2.0000      -0.539748       -14.6873
  11   2.0000      -0.446012       -12.1366
  12   2.0000      -0.441341       -12.0095
  13   2.0000      -0.423600       -11.5267
  14   2.0000      -0.395400       -10.7594
  15   2.0000      -0.303293        -8.2530
  16   2.0000      -0.263999        -7.1838
  17   2.0000      -0.256042        -6.9673
  18   0.0000      -0.000882        -0.0240
  19   0.0000       0.007605         0.2069
  20   0.0000       0.017024         0.4633
  21   0.0000       0.019773         0.5381
  22   0.0000       0.039010         1.0615

MULLIKEN ATOMIC CHARGES
-----------------------
   0 C :   -0.699902
   1 C :   -0.011615
   2 C :   -0.439663
   3 N :   -0.687762
   4 N :    0.339829
   5 H :    0.112257
   6 H :    0.527327
   7 H :    0.352688
   8 H :    0.506841
Sum of atomic charges:    0.0000000

LOEWDIN ATOMIC CHARGES
----------------------
   0 C :    0.104861
   1 C :    0.164818
   2 C :   -0.058697
   3 N :    0.250358
   4 N :    0.304851
   5 H :   -0.232948
   6 H :   -0.194951
   7 H :   -0.185606
   8 H :   -0.152687

  Mayer bond orders larger than 0.100000
B(  0-C ,  1-C ) :   1.0148 B(  0-C ,  2-C ) :   0.1375 B(  0-C ,  4-N ) :   1.2673
B(  0-C ,  8-H ) :   0.6582 B(  1-C ,  2-C ) :   0.9970 B(  1-C ,  4-N ) :  -0.1224
B(  1-C ,  7-H ) :   0.8845 B(  2-C ,  3-N ) :   1.4196 B(  2-C ,  6-H ) :   0.6460
B(  3-N ,  4-N ) :   0.3901 B(  4-N ,  5-H ) :   1.0755

Dispersion correction           -0.011470616
FINAL SINGLE POINT ENERGY      -226.178812094486

DIPOLE MOMENT
-------------

Method             : SCF
Type of density    : Electron Density
Multiplicity       :   1
Irrep              :   0
Energy             :  -226.1673414781942313 Eh
Relativity type    :
Basis              : AO
                                X                 Y                 Z
Electronic contribution:     -1.338643976       0.177544662      -0.001142477
Nuclear contribution   :      1.652068746       1.054919735       0.000040788
                        -----------------------------------------
Total Dipole Moment    :      0.313424770       1.232464397      -0.001101689
                        -----------------------------------------
Magnitude (a.u.)       :      1.271693670
Magnitude (Debye)      :      3.232388428

Rotational constants in cm-1:             0.323621             0.316316             0.159963
Rotational constants in MHz :          9701.899385          9482.912680          4795.578108

                             ****ORCA TERMINATED NORMALLY****
TOTAL RUN TIME: 0 days 0 hours 1 minutes 13 seconds 677 msec
