                         Program Version 6.0.0  -   RELEASE  -
|  1> !TPSSh aug-cc-pVTZ d3 TightSCF SlowConv RIJCOSX defgrid2
|  2>
|  3> %pal
|  4> nprocs 4
|  5> end
|  6>
|  7> %scf
|  8> MaxIter 1500
|  9> end
| 10>
| 11> %maxcore 3000
| 12>
| 13> !CPCM
| 14> %cpcm smd true
| 15> SMDsolvent "MeCN"
| 16> surfacetype gepol_ses
| 17> rsolv 2.19
| 18> end
| 19>
| 20> * xyz 1 2
| 21> C          -1.06386344655545     -0.91329923764825      0.00354757702725
| 22> C           0.22163478430249     -1.40337223094175      0.04858043804036
| 23> C           0.53945025913243     -2.86197889510622      0.10169084984005
| 24> H          -0.37259520711996     -3.47715377611844      0.08589055463224
| 25> H           1.10475563615799     -3.10497153663765      1.01926780026075
| 26> H           1.17109714187519     -3.15621662267989     -0.75541137044371
| 27> C           1.27360747036098     -0.44465743263894      0.04352288846465
| 28> C           1.04730295949006      0.97973504194292     -0.00482697142823
| 29> C           2.21826802319715      1.89495355633420     -0.00501918248716
| 30> H           2.87852806587755      1.67773079367681     -0.86595049735279
| 31> H           1.91752465121824      2.95187818048041     -0.04884973003982
| 32> H           2.83071273968936      1.73802851771994      0.90320153771289
| 33> C          -0.25714882442837      1.42208817632644     -0.04842885905841
| 34> C          -1.33212517936375      0.50020425527138     -0.04514025959234
| 35> C          -2.73438084453214      0.95960010306211     -0.09132088440263
| 36> H          -3.24557910809032      0.52601718911780     -0.97488501067325
| 37> H          -2.82792542810869      2.05448934777564     -0.12005666171949
| 38> H          -3.29093535822372      0.56719702138835      0.78377537035428
| 39> H          -0.47441598823820      2.49274908825876     -0.08618140398361
| 40> H           2.30992878348264     -0.80041103745640      0.07738415126096
| 41> H          -1.91351563012347     -1.60314880212721      0.00441476358802
| 42> *
| 43>
| 44>                          ****END OF INPUT****

CARTESIAN COORDINATES (ANGSTROEM)
---------------------------------
  C     -1.063863   -0.913299    0.003548
  C      0.221635   -1.403372    0.048580
  C      0.539450   -2.861979    0.101691
  H     -0.372595   -3.477154    0.085891
  H      1.104756   -3.104972    1.019268
  H      1.171097   -3.156217   -0.755411
  C      1.273607   -0.444657    0.043523
  C      1.047303    0.979735   -0.004827
  C      2.218268    1.894954   -0.005019
  H      2.878528    1.677731   -0.865950
  H      1.917525    2.951878   -0.048850
  H      2.830713    1.738029    0.903202
  C     -0.257149    1.422088   -0.048429
  C     -1.332125    0.500204   -0.045140
  C     -2.734381    0.959600   -0.091321
  H     -3.245579    0.526017   -0.974885
  H     -2.827925    2.054489   -0.120057
  H     -3.290935    0.567197    0.783775
  H     -0.474416    2.492749   -0.086181
  H      2.309929   -0.800411    0.077384
  H     -1.913516   -1.603149    0.004415

 Total Charge           Charge          ....    1
 Multiplicity           Mult            ....    2
 Number of Electrons    NEL             ....   65
 Basis Dimension        Dim             ....  690

ORBITAL ENERGIES
----------------
                 SPIN UP ORBITALS
  NO   OCC          E(Eh)            E(eV)
   0   1.0000     -10.199347      -277.5383
   1   1.0000     -10.191603      -277.3276
   2   1.0000     -10.179926      -277.0099
   3   1.0000     -10.167266      -276.6654
   4   1.0000     -10.162655      -276.5399
   5   1.0000     -10.150445      -276.2077
   6   1.0000     -10.132902      -275.7303
   7   1.0000     -10.127808      -275.5917
   8   1.0000     -10.123993      -275.4878
   9   1.0000      -0.889478       -24.2039
  10   1.0000      -0.807207       -21.9652
  11   1.0000      -0.800368       -21.7791
  12   1.0000      -0.706444       -19.2233
  13   1.0000      -0.696590       -18.9552
  14   1.0000      -0.693425       -18.8691
  15   1.0000      -0.592443       -16.1212
  16   1.0000      -0.588058       -16.0019
  17   1.0000      -0.514209       -13.9923
  18   1.0000      -0.499121       -13.5818
  19   1.0000      -0.446689       -12.1550
  20   1.0000      -0.445209       -12.1148
  21   1.0000      -0.421787       -11.4774
  22   1.0000      -0.419574       -11.4172
  23   1.0000      -0.417462       -11.3597
  24   1.0000      -0.411059       -11.1855
  25   1.0000      -0.399002       -10.8574
  26   1.0000      -0.397260       -10.8100
  27   1.0000      -0.367447        -9.9987
  28   1.0000      -0.356008        -9.6875
  29   1.0000      -0.355452        -9.6723
  30   1.0000      -0.351489        -9.5645
  31   1.0000      -0.284402        -7.7390
  32   1.0000      -0.274195        -7.4612
  33   0.0000      -0.089643        -2.4393
  34   0.0000      -0.052537        -1.4296
  35   0.0000      -0.008317        -0.2263
  36   0.0000       0.006063         0.1650
  37   0.0000       0.006934         0.1887

                 SPIN DOWN ORBITALS
  NO   OCC          E(Eh)            E(eV)
   0   1.0000     -10.194323      -277.4016
   1   1.0000     -10.183643      -277.1110
   2   1.0000     -10.178938      -276.9830
   3   1.0000     -10.168476      -276.6983
   4   1.0000     -10.160451      -276.4799
   5   1.0000     -10.150718      -276.2151
   6   1.0000     -10.132907      -275.7304
   7   1.0000     -10.127713      -275.5891
   8   1.0000     -10.123885      -275.4849
   9   1.0000      -0.880740       -23.9662
  10   1.0000      -0.799482       -21.7550
  11   1.0000      -0.795913       -21.6579
  12   1.0000      -0.704872       -19.1806
  13   1.0000      -0.691088       -18.8055
  14   1.0000      -0.686175       -18.6718
  15   1.0000      -0.586194       -15.9511
  16   1.0000      -0.584710       -15.9108
  17   1.0000      -0.511138       -13.9088
  18   1.0000      -0.496277       -13.5044
  19   1.0000      -0.443979       -12.0813
  20   1.0000      -0.430528       -11.7153
  21   1.0000      -0.421358       -11.4657
  22   1.0000      -0.413466       -11.2510
  23   1.0000      -0.410056       -11.1582
  24   1.0000      -0.409282       -11.1371
  25   1.0000      -0.397942       -10.8285
  26   1.0000      -0.396455       -10.7881
  27   1.0000      -0.366122        -9.9627
  28   1.0000      -0.354219        -9.6388
  29   1.0000      -0.349141        -9.5006
  30   1.0000      -0.338217        -9.2034
  31   1.0000      -0.269159        -7.3242
  32   0.0000      -0.216458        -5.8901
  33   0.0000      -0.053624        -1.4592
  34   0.0000      -0.041819        -1.1380
  35   0.0000      -0.007417        -0.2018
  36   0.0000       0.006658         0.1812

MULLIKEN ATOMIC CHARGES AND SPIN POPULATIONS
--------------------------------------------
   0 C :   -0.496746    0.175741
   1 C :    0.536687   -0.129830
   2 C :   -0.258751    0.007933
   3 H :    0.080402   -0.000737
   4 H :    0.133265   -0.000531
   5 H :    0.129057   -0.000557
   6 C :   -0.892425    0.495039
   7 C :    0.645840    0.058191
   8 C :   -0.225664   -0.009277
   9 H :    0.142424    0.011358
  10 H :    0.075096   -0.002498
  11 H :    0.143033    0.011545
  12 C :   -0.073223   -0.016676
  13 C :    0.873975    0.376303
  14 C :   -0.152530   -0.041842
  15 H :    0.154107    0.034851
  16 H :    0.088890   -0.005220
  17 H :    0.152324    0.034136
  18 H :   -0.078692   -0.002340
  19 H :    0.030655    0.001134
  20 H :   -0.007726    0.003276
Sum of atomic charges         :    1.0000000

LOEWDIN ATOMIC CHARGES AND SPIN POPULATIONS
-------------------------------------------
   0 C :    0.306549    0.109102
   1 C :   -0.064170    0.064031
   2 C :    0.607180   -0.000528
   3 H :   -0.155348    0.000378
   4 H :   -0.141950    0.000480
   5 H :   -0.142484    0.000465
   6 C :    0.345439    0.267070
   7 C :   -0.054753    0.108692
   8 C :    0.615617    0.023735
   9 H :   -0.135468    0.006876
  10 H :   -0.150701    0.001393
  11 H :   -0.135233    0.006955
  12 C :    0.298829    0.052186
  13 C :   -0.040776    0.187100
  14 C :    0.631191    0.066300
  15 H :   -0.124904    0.017864
  16 H :   -0.146263    0.002576
  17 H :   -0.125381    0.017562
  18 H :   -0.142107    0.000000
  19 H :   -0.113526    0.052331
  20 H :   -0.131740    0.015432

  Mayer bond orders larger than 0.100000
B(  0-C ,  1-C ) :   1.0396 B(  0-C ,  2-C ) :  -0.1621 B(  0-C ,  6-C ) :   0.1246
B(  0-C , 13-C ) :   0.4748 B(  0-C , 14-C ) :   0.1477 B(  0-C , 20-H ) :   1.1877
B(  1-C ,  2-C ) :   0.7156 B(  1-C ,  6-C ) :   0.7895 B(  1-C ,  7-C ) :   0.2521
B(  1-C , 13-C ) :   0.2873 B(  2-C ,  3-H ) :   0.9631 B(  2-C ,  4-H ) :   0.9994
B(  2-C ,  5-H ) :   1.0020 B(  2-C ,  6-C ) :   0.1810 B(  6-C ,  7-C ) :   0.6523
B(  6-C ,  8-C ) :   0.1889 B(  6-C , 13-C ) :  -0.2998 B(  6-C , 19-H ) :   1.1331
B(  7-C ,  8-C ) :   0.6787 B(  7-C , 12-C ) :   0.8825 B(  7-C , 13-C ) :   0.3185
B(  8-C ,  9-H ) :   0.9817 B(  8-C , 10-H ) :   0.9725 B(  8-C , 11-H ) :   0.9812
B(  8-C , 12-C ) :  -0.2057 B( 12-C , 13-C ) :   0.5328 B( 12-C , 14-C ) :  -0.1399
B( 12-C , 18-H ) :   1.3152 B( 13-C , 14-C ) :   0.7121 B( 14-C , 15-H ) :   0.9488
B( 14-C , 16-H ) :   0.9709 B( 14-C , 17-H ) :   0.9498

Dispersion correction           -0.023855097
FINAL SINGLE POINT ENERGY      -350.157931768963

DIPOLE MOMENT
-------------

Method             : SCF
Type of density    : Electron Density
Multiplicity       :   2
Irrep              :   0
Energy             :  -350.1340766723033084 Eh
Relativity type    :
Basis              : AO
                                X                 Y                 Z
Electronic contribution:     -0.259319291       0.334926740      -0.019890538
Nuclear contribution   :      0.172059902      -0.262839703       0.016137258
                        -----------------------------------------
Total Dipole Moment    :     -0.087259389       0.072087037      -0.003753280
                        -----------------------------------------
Magnitude (a.u.)       :      0.113246761
Magnitude (Debye)      :      0.287850391

Rotational constants in cm-1:             0.058615             0.057378             0.029475
Rotational constants in MHz :          1757.241718          1720.152474           883.633658

                             ****ORCA TERMINATED NORMALLY****
TOTAL RUN TIME: 0 days 0 hours 11 minutes 8 seconds 35 msec
