                         Program Version 6.0.0  -   RELEASE  -
|  1> !PBE0 aug-cc-pVTZ d3 TightSCF SlowConv RIJCOSX defgrid2
|  2>
|  3> %pal
|  4> nprocs 4
|  5> end
|  6>
|  7> %scf
|  8> MaxIter 1500
|  9> end
| 10>
| 11> %maxcore 3000
| 12>
| 13> !CPCM
| 14> %cpcm smd true
| 15> SMDsolvent "MeCN"
| 16> surfacetype gepol_ses
| 17> rsolv 2.19
| 18> end
| 19>
| 20> * xyz 1 2
| 21> C          -1.44481249477950     -1.24089869043630     -0.04422599400373
| 22> C          -0.65270604847852     -0.00076368095320      0.28791614725384
| 23> C          -1.30929275863265      1.23982712865771      0.35161568821529
| 24> C          -2.74063823963677      1.43127678213719      0.02585737149656
| 25> C          -3.39505339125515      0.23037622200763     -0.64214547535322
| 26> C          -2.95552826966099     -1.04385052815768      0.05894599867098
| 27> H          -3.25015333818141     -1.00365338980094      1.12375920827710
| 28> H          -3.45411967363569     -1.92734186501785     -0.37018160543262
| 29> H          -3.10809852954095      0.19229025020268     -1.70915885064496
| 30> H          -4.49080288100221      0.33786121592847     -0.61492706244962
| 31> H          -3.25929625917231      1.67756120213297      0.97946727706286
| 32> H          -2.84476148649454      2.35439029011798     -0.57598988497406
| 33> H          -0.76469248652363      2.13141528408385      0.67016269395744
| 34> N           0.66752107988003     -0.10626256742495      0.51040491586712
| 35> C           1.56955562659101      1.00233502677147      0.81026146443154
| 36> H           1.02598182456206      1.94284494841719      0.94569175972172
| 37> C           2.60477512331413      1.13220701827643     -0.31350161995086
| 38> H           3.33201792543053      1.91420413707981     -0.04701570716605
| 39> H           2.09193033727133      1.43067631822316     -1.25179236728035
| 40> O           3.30361867772652     -0.05985085481676     -0.47723954868017
| 41> C           2.46362526797603     -1.12359131694069     -0.79016381810780
| 42> H           1.94257622699126     -0.95317296670009     -1.75539103320005
| 43> C           1.42056299159698     -1.34142967958749      0.31558716197835
| 44> H           1.93714553018002     -1.57576109367006      1.26235030582174
| 45> H           0.75880210570906     -2.17479036012822      0.05847316266350
| 46> H           3.08480888198717     -2.02759057110245     -0.88152456683608
| 47> H           2.08534474449633      0.75971289468002      1.75472159871514
| 48> H          -1.17788242047587     -1.56014085908261     -1.07070698702721
| 49> H          -1.13843616624223     -2.06145349489725      0.62645826697362
| 50> *
| 51>
| 52>                          ****END OF INPUT****

CARTESIAN COORDINATES (ANGSTROEM)
---------------------------------
  C     -1.444812   -1.240899   -0.044226
  C     -0.652706   -0.000764    0.287916
  C     -1.309293    1.239827    0.351616
  C     -2.740638    1.431277    0.025857
  C     -3.395053    0.230376   -0.642145
  C     -2.955528   -1.043851    0.058946
  H     -3.250153   -1.003653    1.123759
  H     -3.454120   -1.927342   -0.370182
  H     -3.108099    0.192290   -1.709159
  H     -4.490803    0.337861   -0.614927
  H     -3.259296    1.677561    0.979467
  H     -2.844761    2.354390   -0.575990
  H     -0.764692    2.131415    0.670163
  N      0.667521   -0.106263    0.510405
  C      1.569556    1.002335    0.810261
  H      1.025982    1.942845    0.945692
  C      2.604775    1.132207   -0.313502
  H      3.332018    1.914204   -0.047016
  H      2.091930    1.430676   -1.251792
  O      3.303619   -0.059851   -0.477240
  C      2.463625   -1.123591   -0.790164
  H      1.942576   -0.953173   -1.755391
  C      1.420563   -1.341430    0.315587
  H      1.937146   -1.575761    1.262350
  H      0.758802   -2.174790    0.058473
  H      3.084809   -2.027591   -0.881525
  H      2.085345    0.759713    1.754722
  H     -1.177882   -1.560141   -1.070707
  H     -1.138436   -2.061453    0.626458

 Total Charge           Charge          ....    1
 Multiplicity           Mult            ....    2
 Number of Electrons    NEL             ....   91
 Basis Dimension        Dim             ....  943

ORBITAL ENERGIES
----------------
                 SPIN UP ORBITALS
  NO   OCC          E(Eh)            E(eV)
   0   1.0000     -19.235381      -523.4213
   1   1.0000     -14.496839      -394.4790
   2   1.0000     -10.322672      -280.8942
   3   1.0000     -10.287081      -279.9257
   4   1.0000     -10.286537      -279.9109
   5   1.0000     -10.284029      -279.8427
   6   1.0000     -10.280515      -279.7470
   7   1.0000     -10.279868      -279.7294
   8   1.0000     -10.247345      -278.8444
   9   1.0000     -10.241221      -278.6778
  10   1.0000     -10.228678      -278.3365
  11   1.0000     -10.225826      -278.2589
  12   1.0000      -1.106960       -30.1219
  13   1.0000      -1.043787       -28.4029
  14   1.0000      -0.887827       -24.1590
  15   1.0000      -0.826159       -22.4809
  16   1.0000      -0.808994       -22.0138
  17   1.0000      -0.793061       -21.5803
  18   1.0000      -0.735096       -20.0030
  19   1.0000      -0.712959       -19.4006
  20   1.0000      -0.660408       -17.9706
  21   1.0000      -0.650638       -17.7048
  22   1.0000      -0.610826       -16.6214
  23   1.0000      -0.582006       -15.8372
  24   1.0000      -0.550149       -14.9703
  25   1.0000      -0.524805       -14.2807
  26   1.0000      -0.517117       -14.0715
  27   1.0000      -0.510276       -13.8853
  28   1.0000      -0.501588       -13.6489
  29   1.0000      -0.491128       -13.3643
  30   1.0000      -0.472022       -12.8444
  31   1.0000      -0.455691       -12.4000
  32   1.0000      -0.453610       -12.3433
  33   1.0000      -0.439069       -11.9477
  34   1.0000      -0.433692       -11.8013
  35   1.0000      -0.413503       -11.2520
  36   1.0000      -0.409280       -11.1371
  37   1.0000      -0.393923       -10.7192
  38   1.0000      -0.383455       -10.4344
  39   1.0000      -0.372163       -10.1271
  40   1.0000      -0.349615        -9.5135
  41   1.0000      -0.346790        -9.4366
  42   1.0000      -0.339721        -9.2443
  43   1.0000      -0.336615        -9.1598
  44   1.0000      -0.297052        -8.0832
  45   1.0000      -0.255658        -6.9568
  46   0.0000      -0.018350        -0.4993
  47   0.0000      -0.000830        -0.0226
  48   0.0000       0.009531         0.2594
  49   0.0000       0.009793         0.2665
  50   0.0000       0.011745         0.3196

                 SPIN DOWN ORBITALS
  NO   OCC          E(Eh)            E(eV)
   0   1.0000     -19.235025      -523.4117
   1   1.0000     -14.487765      -394.2321
   2   1.0000     -10.324177      -280.9351
   3   1.0000     -10.286495      -279.9097
   4   1.0000     -10.286093      -279.8988
   5   1.0000     -10.280788      -279.7545
   6   1.0000     -10.280152      -279.7372
   7   1.0000     -10.274414      -279.5810
   8   1.0000     -10.247289      -278.8429
   9   1.0000     -10.241606      -278.6883
  10   1.0000     -10.228690      -278.3368
  11   1.0000     -10.225782      -278.2577
  12   1.0000      -1.105520       -30.0827
  13   1.0000      -1.030250       -28.0345
  14   1.0000      -0.879455       -23.9312
  15   1.0000      -0.823942       -22.4206
  16   1.0000      -0.807787       -21.9810
  17   1.0000      -0.785975       -21.3875
  18   1.0000      -0.727484       -19.7958
  19   1.0000      -0.711507       -19.3611
  20   1.0000      -0.657716       -17.8974
  21   1.0000      -0.644297       -17.5322
  22   1.0000      -0.607695       -16.5362
  23   1.0000      -0.577407       -15.7120
  24   1.0000      -0.545715       -14.8497
  25   1.0000      -0.521167       -14.1817
  26   1.0000      -0.508622       -13.8403
  27   1.0000      -0.507798       -13.8179
  28   1.0000      -0.499615       -13.5952
  29   1.0000      -0.486220       -13.2307
  30   1.0000      -0.465164       -12.6578
  31   1.0000      -0.450922       -12.2702
  32   1.0000      -0.449372       -12.2280
  33   1.0000      -0.436759       -11.8848
  34   1.0000      -0.431553       -11.7431
  35   1.0000      -0.406564       -11.0632
  36   1.0000      -0.404163       -10.9978
  37   1.0000      -0.392083       -10.6691
  38   1.0000      -0.381583       -10.3834
  39   1.0000      -0.359240        -9.7754
  40   1.0000      -0.347466        -9.4550
  41   1.0000      -0.344006        -9.3609
  42   1.0000      -0.336902        -9.1676
  43   1.0000      -0.330023        -8.9804
  44   1.0000      -0.287832        -7.8323
  45   0.0000      -0.139555        -3.7975
  46   0.0000      -0.004453        -0.1212
  47   0.0000       0.007262         0.1976
  48   0.0000       0.010501         0.2858
  49   0.0000       0.012130         0.3301

MULLIKEN ATOMIC CHARGES AND SPIN POPULATIONS
--------------------------------------------
   0 C :   -0.001626    0.023283
   1 C :    1.008392   -0.024459
   2 C :   -0.690030    0.624077
   3 C :   -0.283274   -0.068149
   4 C :   -0.370754   -0.000171
   5 C :   -0.555263   -0.006687
   6 H :    0.138292   -0.002309
   7 H :    0.209799    0.000812
   8 H :    0.209400    0.000617
   9 H :    0.186376    0.000068
  10 H :    0.213883    0.054667
  11 H :    0.216136    0.032774
  12 H :    0.412556   -0.063578
  13 N :    0.027895    0.393967
  14 C :   -0.751134   -0.040491
  15 H :    0.176090    0.004891
  16 C :   -0.072507    0.025448
  17 H :    0.258524    0.002040
  18 H :    0.265383    0.001966
  19 O :   -0.640507    0.012626
  20 C :   -0.083659    0.034593
  21 H :    0.263265    0.002318
  22 C :   -0.625436   -0.041911
  23 H :    0.219692    0.018763
  24 H :    0.225380    0.001052
  25 H :    0.249127    0.003028
  26 H :    0.216098    0.010130
  27 H :    0.246098    0.000764
  28 H :    0.331803   -0.000129
Sum of atomic charges         :    1.0000000

LOEWDIN ATOMIC CHARGES AND SPIN POPULATIONS
-------------------------------------------
   0 C :    0.315743    0.002766
   1 C :   -0.077119    0.106948
   2 C :    0.365839    0.314976
   3 C :    0.300334    0.097010
   4 C :    0.286912    0.005028
   5 C :    0.295503    0.002009
   6 H :   -0.115923    0.000409
   7 H :   -0.117862    0.000178
   8 H :   -0.118804    0.000817
   9 H :   -0.121708    0.000084
  10 H :   -0.107355    0.026364
  11 H :   -0.114579    0.014763
  12 H :   -0.157408    0.058848
  13 N :    0.343501    0.233532
  14 C :    0.265460    0.030350
  15 H :   -0.156364    0.000324
  16 C :    0.056106    0.013135
  17 H :   -0.126729    0.002389
  18 H :   -0.120462    0.001435
  19 O :    0.609429    0.011071
  20 C :    0.056475    0.016326
  21 H :   -0.121015    0.001837
  22 C :    0.262623    0.038106
  23 H :   -0.095468    0.009753
  24 H :   -0.154282    0.001626
  25 H :   -0.126142    0.003256
  26 H :   -0.097879    0.007190
  27 H :   -0.100753    0.000227
  28 H :   -0.128072   -0.000757

  Mayer bond orders larger than 0.100000
B(  0-C ,  1-C ) :   0.7476 B(  0-C ,  2-C ) :  -0.1283 B(  0-C ,  5-C ) :   0.9539
B(  0-C , 27-H ) :   0.8921 B(  0-C , 28-H ) :   0.8294 B(  1-C ,  2-C ) :   0.4069
B(  1-C ,  3-C ) :  -0.1840 B(  1-C ,  4-C ) :  -0.1030 B(  1-C , 12-H ) :   0.1324
B(  1-C , 13-N ) :   0.3954 B(  1-C , 14-C ) :  -0.1771 B(  1-C , 22-C ) :  -0.1375
B(  2-C ,  3-C ) :   0.9888 B(  2-C ,  4-C ) :   0.1253 B(  2-C , 12-H ) :   0.5479
B(  3-C ,  4-C ) :   1.0297 B(  3-C , 10-H ) :   0.9447 B(  3-C , 11-H ) :   0.8983
B(  4-C ,  5-C ) :   1.0401 B(  4-C ,  8-H ) :   0.9452 B(  4-C ,  9-H ) :   0.9593
B(  5-C ,  6-H ) :   1.0235 B(  5-C ,  7-H ) :   0.9138 B( 13-N , 14-C ) :   1.2470
B( 13-N , 22-C ) :   1.0451 B( 14-C , 15-H ) :   0.9756 B( 14-C , 16-C ) :   0.9744
B( 14-C , 22-C ) :   0.2175 B( 14-C , 26-H ) :   0.9357 B( 16-C , 17-H ) :   0.9324
B( 16-C , 18-H ) :   0.9225 B( 16-C , 19-O ) :   0.8520 B( 19-O , 20-C ) :   0.8525
B( 20-C , 21-H ) :   0.9167 B( 20-C , 22-C ) :   0.9998 B( 20-C , 25-H ) :   0.9394
B( 22-C , 23-H ) :   0.9151 B( 22-C , 24-H ) :   0.9371

Dispersion correction           -0.027166649
FINAL SINGLE POINT ENERGY      -520.687570461465

DIPOLE MOMENT
-------------

Method             : SCF
Type of density    : Electron Density
Multiplicity       :   2
Irrep              :   0
Energy             :  -520.6604038124086173 Eh
Relativity type    :
Basis              : AO
                                X                 Y                 Z
Electronic contribution:      6.165694749       0.803193482       1.267022602
Nuclear contribution   :     -6.882345932      -0.552455491      -0.747170800
                        -----------------------------------------
Total Dipole Moment    :     -0.716651183       0.250737991       0.519851802
                        -----------------------------------------
Magnitude (a.u.)       :      0.920165395
Magnitude (Debye)      :      2.338874562

Rotational constants in cm-1:             0.071012             0.017984             0.015658
Rotational constants in MHz :          2128.893427           539.145769           469.425599

                             ****ORCA TERMINATED NORMALLY****
TOTAL RUN TIME: 0 days 0 hours 16 minutes 31 seconds 370 msec
