                         Program Version 6.0.0  -   RELEASE  -
|  1> !B3LYP freq aug-cc-pVTZ d3 TightSCF SlowConv RIJCOSX defgrid2
|  2>
|  3> %pal
|  4> nprocs 12
|  5>
|  6> end
|  7>
|  8> %scf
|  9> MaxIter 1500
| 10> end
| 11>
| 12> %maxcore 5000
| 13>
| 14> !CPCM
| 15> %cpcm smd true
| 16> SMDsolvent "MeCN"
| 17> surfacetype gepol_ses
| 18> rsolv 2.19
| 19> end
| 20>
| 21> * xyz 1 2
| 22> C           1.34067623527675      0.00229190584035     -0.00153337586599
| 23> C           0.74790362743327      1.28943021657594     -0.00399666888336
| 24> C          -0.60783609896854      1.40432717135427     -0.00285410604949
| 25> C          -1.42116345857381      0.23847100030283     -0.00075647401462
| 26> C          -0.83219982019903     -1.04981582385199     -0.00317277073824
| 27> C           0.52768831106231     -1.16012085702528     -0.00290842975594
| 28> H           0.98866899570152     -2.13769495388043     -0.00328709402772
| 29> H          -1.44531887799463     -1.93585723421926     -0.00332328251584
| 30> O          -2.71671764277503      0.45327606780963      0.00334427324946
| 31> C          -3.64561780058221     -0.65816734403327      0.00274325313890
| 32> H          -4.62930454126402     -0.20318935461179      0.00540866619041
| 33> H          -3.50583985205962     -1.25549142659955     -0.89550423510700
| 34> H          -3.50307113152817     -1.25979826694193      0.89779003010757
| 35> H          -1.09005067798418      2.37084849262928     -0.00291687922176
| 36> H           1.37155801825099      2.17104693612600     -0.00712946332973
| 37> S           3.04358267078170     -0.23020899932995      0.00578272216809
| 38> H           3.40213754342270      1.07323286985517      0.01240053465527
| 39> *
| 40>
| 41>                          ****END OF INPUT****

CARTESIAN COORDINATES (ANGSTROEM)
---------------------------------
  C      1.340676    0.002292   -0.001533
  C      0.747904    1.289430   -0.003997
  C     -0.607836    1.404327   -0.002854
  C     -1.421163    0.238471   -0.000756
  C     -0.832200   -1.049816   -0.003173
  C      0.527688   -1.160121   -0.002908
  H      0.988669   -2.137695   -0.003287
  H     -1.445319   -1.935857   -0.003323
  O     -2.716718    0.453276    0.003344
  C     -3.645618   -0.658167    0.002743
  H     -4.629305   -0.203189    0.005409
  H     -3.505840   -1.255491   -0.895504
  H     -3.503071   -1.259798    0.897790
  H     -1.090051    2.370848   -0.002917
  H      1.371558    2.171047   -0.007129
  S      3.043583   -0.230209    0.005783
  H      3.402138    1.073233    0.012401

 Total Charge           Charge          ....    1
 Multiplicity           Mult            ....    2
 Number of Electrons    NEL             ....   73
 Basis Dimension        Dim             ....  602

ORBITAL ENERGIES
----------------
                 SPIN UP ORBITALS
  NO   OCC          E(Eh)            E(eV)
   0   1.0000     -88.960088     -2420.7271
   1   1.0000     -19.222546      -523.0721
   2   1.0000     -10.299611      -280.2667
   3   1.0000     -10.272724      -279.5350
   4   1.0000     -10.235619      -278.5254
   5   1.0000     -10.227206      -278.2964
   6   1.0000     -10.223100      -278.1847
   7   1.0000     -10.218336      -278.0551
   8   1.0000     -10.218237      -278.0524
   9   1.0000      -8.011343      -217.9997
  10   1.0000      -5.974316      -162.5694
  11   1.0000      -5.971802      -162.5010
  12   1.0000      -5.970240      -162.4585
  13   1.0000      -1.130978       -30.7755
  14   1.0000      -0.916689       -24.9444
  15   1.0000      -0.843963       -22.9654
  16   1.0000      -0.802777       -21.8447
  17   1.0000      -0.769763       -20.9463
  18   1.0000      -0.715859       -19.4795
  19   1.0000      -0.658720       -17.9247
  20   1.0000      -0.626154       -17.0385
  21   1.0000      -0.571947       -15.5635
  22   1.0000      -0.541530       -14.7358
  23   1.0000      -0.515452       -14.0262
  24   1.0000      -0.511141       -13.9088
  25   1.0000      -0.479858       -13.0576
  26   1.0000      -0.468684       -12.7535
  27   1.0000      -0.455154       -12.3854
  28   1.0000      -0.434259       -11.8168
  29   1.0000      -0.432239       -11.7618
  30   1.0000      -0.401886       -10.9359
  31   1.0000      -0.393620       -10.7109
  32   1.0000      -0.389466       -10.5979
  33   1.0000      -0.365077        -9.9343
  34   1.0000      -0.331726        -9.0267
  35   1.0000      -0.306446        -8.3388
  36   1.0000      -0.254193        -6.9169
  37   0.0000      -0.058635        -1.5955
  38   0.0000      -0.051773        -1.4088
  39   0.0000      -0.023285        -0.6336
  40   0.0000      -0.003770        -0.1026
  41   0.0000      -0.001229        -0.0334

                 SPIN DOWN ORBITALS
  NO   OCC          E(Eh)            E(eV)
   0   1.0000     -88.958287     -2420.6781
   1   1.0000     -19.217739      -522.9413
   2   1.0000     -10.296927      -280.1936
   3   1.0000     -10.268999      -279.4337
   4   1.0000     -10.235767      -278.5294
   5   1.0000     -10.226508      -278.2774
   6   1.0000     -10.223001      -278.1820
   7   1.0000     -10.217593      -278.0348
   8   1.0000     -10.217332      -278.0277
   9   1.0000      -8.009538      -217.9506
  10   1.0000      -5.973265      -162.5408
  11   1.0000      -5.969252      -162.4316
  12   1.0000      -5.965792      -162.3375
  13   1.0000      -1.122027       -30.5319
  14   1.0000      -0.909765       -24.7560
  15   1.0000      -0.836021       -22.7493
  16   1.0000      -0.800589       -21.7851
  17   1.0000      -0.765078       -20.8188
  18   1.0000      -0.708120       -19.2689
  19   1.0000      -0.654661       -17.8142
  20   1.0000      -0.621686       -16.9169
  21   1.0000      -0.569295       -15.4913
  22   1.0000      -0.539468       -14.6797
  23   1.0000      -0.512235       -13.9386
  24   1.0000      -0.495444       -13.4817
  25   1.0000      -0.477501       -12.9935
  26   1.0000      -0.467648       -12.7253
  27   1.0000      -0.452873       -12.3233
  28   1.0000      -0.430458       -11.7134
  29   1.0000      -0.419157       -11.4058
  30   1.0000      -0.400075       -10.8866
  31   1.0000      -0.384891       -10.4734
  32   1.0000      -0.375226       -10.2104
  33   1.0000      -0.362070        -9.8524
  34   1.0000      -0.304847        -8.2953
  35   1.0000      -0.300582        -8.1793
  36   0.0000      -0.185304        -5.0424
  37   0.0000      -0.042803        -1.1647
  38   0.0000      -0.033806        -0.9199
  39   0.0000      -0.021668        -0.5896
  40   0.0000      -0.002982        -0.0811

MULLIKEN ATOMIC CHARGES AND SPIN POPULATIONS
--------------------------------------------
   0 C :    0.724595    0.196061
   1 C :   -0.627332   -0.006724
   2 C :   -0.773721    0.053266
   3 C :    1.213698    0.175164
   4 C :   -0.233903    0.038032
   5 C :   -0.789690    0.051289
   6 H :    0.489503   -0.002862
   7 H :    0.457038    0.006499
   8 O :   -0.632973    0.158637
   9 C :   -0.643493   -0.010388
  10 H :    0.264415    0.000784
  11 H :    0.310938    0.006062
  12 H :    0.310578    0.006089
  13 H :    0.569108    0.001679
  14 H :    0.382513   -0.000260
  15 S :   -0.193985    0.349214
  16 H :    0.172710   -0.022542
Sum of atomic charges         :    1.0000000

LOEWDIN ATOMIC CHARGES AND SPIN POPULATIONS
-------------------------------------------
   0 C :   -0.529677    0.165871
   1 C :    0.180076    0.046271
   2 C :    0.262711    0.064250
   3 C :   -0.339501    0.131323
   4 C :    0.265053    0.062952
   5 C :    0.166012    0.061825
   6 H :   -0.165764    0.003890
   7 H :   -0.168669    0.006215
   8 O :    0.654025    0.143947
   9 C :    0.442003    0.013805
  10 H :   -0.164451   -0.000384
  11 H :   -0.155593    0.003382
  12 H :   -0.155409    0.003374
  13 H :   -0.150028    0.006930
  14 H :   -0.168853    0.000538
  15 S :    1.498698    0.249260
  16 H :   -0.470632    0.036552

  Mayer bond orders larger than 0.100000
B(  0-C ,  1-C ) :   0.8462 B(  0-C ,  5-C ) :   1.0127 B(  0-C , 15-S ) :   0.6144
B(  1-C ,  2-C ) :   1.5423 B(  1-C ,  3-C ) :  -0.2832 B(  1-C , 14-H ) :   0.7255
B(  2-C ,  3-C ) :   0.6061 B(  2-C ,  4-C ) :   0.1042 B(  2-C ,  8-O ) :   0.2935
B(  2-C , 13-H ) :   0.3693 B(  3-C ,  4-C ) :   0.9007 B(  3-C ,  5-C ) :  -0.2438
B(  3-C ,  8-O ) :   0.5399 B(  4-C ,  5-C ) :   1.1802 B(  4-C ,  7-H ) :   0.5025
B(  4-C ,  8-O ) :  -0.1249 B(  5-C ,  6-H ) :   0.6258 B(  5-C , 15-S ) :   0.1396
B(  8-O ,  9-C ) :   0.9225 B(  9-C , 10-H ) :   0.9711 B(  9-C , 11-H ) :   0.8875
B(  9-C , 12-H ) :   0.8877 B( 15-S , 16-H ) :   1.0225

Dispersion correction           -0.031732503
FINAL SINGLE POINT ENERGY      -744.698405180712

DIPOLE MOMENT
-------------

Method             : SCF
Type of density    : Electron Density
Multiplicity       :   2
Irrep              :   0
Energy             :  -744.6666726776488758 Eh
Relativity type    :
Basis              : AO
                                X                 Y                 Z
Electronic contribution:      7.708175884       0.888949476       0.001314196
Nuclear contribution   :     -7.960966501      -1.063143011      -0.001833937
                        -----------------------------------------
Total Dipole Moment    :     -0.252790617      -0.174193535      -0.000519741
                        -----------------------------------------
Magnitude (a.u.)       :      0.306996342
Magnitude (Debye)      :      0.780322688

VIBRATIONAL FREQUENCIES
-----------------------

Scaling factor for frequencies =  1.000000000  (already applied!)

     0:       0.00 cm**-1
     1:       0.00 cm**-1
     2:       0.00 cm**-1
     3:       0.00 cm**-1
     4:       0.00 cm**-1
     5:       0.00 cm**-1
     6:      56.66 cm**-1
     7:     127.62 cm**-1
     8:     156.33 cm**-1
     9:     196.03 cm**-1
    10:     288.97 cm**-1
    11:     296.45 cm**-1
    12:     332.65 cm**-1
    13:     360.80 cm**-1
    14:     404.07 cm**-1
    15:     502.27 cm**-1
    16:     503.72 cm**-1
    17:     608.11 cm**-1
    18:     651.07 cm**-1
    19:     729.97 cm**-1
    20:     784.79 cm**-1
    21:     807.98 cm**-1
    22:     849.41 cm**-1
    23:     932.02 cm**-1
    24:     984.99 cm**-1
    25:     988.55 cm**-1
    26:     989.31 cm**-1
    27:     998.13 cm**-1
    28:    1132.16 cm**-1
    29:    1139.26 cm**-1
    30:    1164.03 cm**-1
    31:    1197.82 cm**-1
    32:    1201.32 cm**-1
    33:    1320.29 cm**-1
    34:    1338.08 cm**-1
    35:    1358.06 cm**-1
    36:    1453.32 cm**-1
    37:    1472.06 cm**-1
    38:    1473.88 cm**-1
    39:    1493.65 cm**-1
    40:    1509.69 cm**-1
    41:    1517.03 cm**-1
    42:    1650.49 cm**-1
    43:    2610.68 cm**-1
    44:    3057.65 cm**-1
    45:    3140.01 cm**-1
    46:    3176.38 cm**-1
    47:    3193.48 cm**-1
    48:    3199.31 cm**-1
    49:    3212.16 cm**-1
    50:    3233.18 cm**-1

IR SPECTRUM
-----------

 Mode   freq       eps      Int      T**2         TX        TY        TZ
       cm**-1   L/(mol*cm) km/mol    a.u.
----------------------------------------------------------------------------
  6:     56.66   0.000162    0.82  0.000894  ( 0.000996 -0.000092 -0.029880)
  7:    127.62   0.001094    5.53  0.002675  (-0.002686 -0.000218  0.051651)
  8:    156.33   0.000490    2.48  0.000979  (-0.001715  0.000893 -0.031230)
  9:    196.03   0.001530    7.73  0.002435  (-0.048609  0.008496 -0.000142)
 10:    288.97   0.001310    6.62  0.001414  ( 0.001387 -0.000005  0.037581)
 11:    296.45   0.000294    1.48  0.000309  ( 0.015220 -0.008747 -0.000887)
 12:    332.65   0.004171   21.08  0.003912  ( 0.001300  0.000453 -0.062535)
 13:    360.80   0.000334    1.69  0.000289  ( 0.014521  0.008823  0.000675)
 14:    404.07   0.001692    8.55  0.001307  (-0.000585  0.000356  0.036141)
 15:    502.27   0.005379   27.18  0.003342  ( 0.001349 -0.000530  0.057790)
 16:    503.72   0.001250    6.32  0.000775  (-0.027019  0.005331  0.004023)
 17:    608.11   0.000236    1.19  0.000121  (-0.007799  0.007762  0.000078)
 18:    651.07   0.022313  112.76  0.010695  (-0.102037  0.016828 -0.000047)
 19:    729.97   0.000125    0.63  0.000054  (-0.000302 -0.000321 -0.007306)
 20:    784.79   0.000024    0.12  0.000010  (-0.000523  0.000256 -0.003038)
 21:    807.98   0.002497   12.62  0.000965  (-0.026983 -0.015368 -0.000561)
 22:    849.41   0.022033  111.34  0.008095  (-0.000980  0.000095  0.089964)
 23:    932.02   0.006235   31.51  0.002088  (-0.037044 -0.026743  0.000383)
 24:    984.99   0.000008    0.04  0.000003  ( 0.000042  0.000884 -0.001350)
 25:    988.55   0.008243   41.66  0.002602  (-0.041055 -0.030223 -0.001802)
 26:    989.31   0.011459   57.91  0.003615  ( 0.049232  0.034481 -0.001368)
 27:    998.13   0.015046   76.04  0.004704  (-0.068218 -0.007113 -0.000068)
 28:   1132.16   0.013439   67.91  0.003704  ( 0.060246 -0.008633  0.000321)
 29:   1139.26   0.003292   16.64  0.000902  ( 0.000603  0.030025 -0.000080)
 30:   1164.03   0.000132    0.66  0.000035  (-0.000535  0.000559 -0.005888)
 31:   1197.82   0.015566   78.66  0.004055  (-0.063259 -0.007319 -0.000114)
 32:   1201.32   0.003740   18.90  0.000972  (-0.031159 -0.000782 -0.000204)
 33:   1320.29   0.001521    7.69  0.000360  (-0.009134 -0.016616  0.000091)
 34:   1338.08   0.021939  110.87  0.005116  ( 0.069485  0.016978 -0.000101)
 35:   1358.06   0.102764  519.32  0.023614  ( 0.153661 -0.001358 -0.000107)
 36:   1453.32   0.048218  243.68  0.010354  (-0.099159  0.022827  0.000266)
 37:   1472.06   0.006169   31.17  0.001308  (-0.023579 -0.002575 -0.027296)
 38:   1473.88   0.013573   68.59  0.002874  (-0.051640 -0.006683  0.012747)
 39:   1493.65   0.003479   17.58  0.000727  ( 0.017398  0.020593  0.000157)
 40:   1509.69   0.019814  100.13  0.004096  (-0.061029  0.019265 -0.000037)
 41:   1517.03   0.097606  493.26  0.020078  (-0.141690 -0.001493 -0.000012)
 42:   1650.49   0.020497  103.58  0.003875  (-0.062240 -0.001275  0.000191)
 43:   2610.68   0.022662  114.53  0.002709  ( 0.045487  0.025293  0.000334)
 44:   3057.65   0.006081   30.73  0.000621  ( 0.021988  0.011711  0.000251)
 45:   3140.01   0.001936    9.78  0.000192  ( 0.000477  0.000396  0.013857)
 46:   3176.38   0.002958   14.95  0.000291  (-0.016629  0.003756  0.000060)
 47:   3193.48   0.000165    0.83  0.000016  ( 0.001087  0.003866 -0.000043)
 48:   3199.31   0.000017    0.09  0.000002  ( 0.001234  0.000260  0.000240)
 49:   3212.16   0.000526    2.66  0.000051  ( 0.002369  0.006743 -0.000060)
 50:   3233.18   0.000780    3.94  0.000075  (-0.000974  0.008624  0.000043)

--------------------------
THERMOCHEMISTRY AT 298.15K
--------------------------

Temperature         ...   298.15 K
Pressure            ...     1.00 atm
Total Mass          ...   140.20 AMU
Quasi RRHO          ...     True
Cut-Off Frequency   ...     1.00 cm^-1

Throughout the following assumptions are being made:
  (1) The electronic state is orbitally nondegenerate
      but the spin degeneracy is treated
  (2) There are no thermally accessible electronically excited states
  (3) Hindered rotations indicated by low frequency modes are not
      treated as such but are treated as vibrations and this may
      cause some error
  (4) All equations used are the standard statistical mechanics
      equations for an ideal gas
  (5) All vibrations are strictly harmonic

freq.      56.66  E(vib)   ...       0.52
freq.     127.62  E(vib)   ...       0.43
freq.     156.33  E(vib)   ...       0.40
freq.     196.03  E(vib)   ...       0.36
freq.     288.97  E(vib)   ...       0.27
freq.     296.45  E(vib)   ...       0.27
freq.     332.65  E(vib)   ...       0.24
freq.     360.80  E(vib)   ...       0.22
freq.     404.07  E(vib)   ...       0.19
freq.     502.27  E(vib)   ...       0.14
freq.     503.72  E(vib)   ...       0.14
freq.     608.11  E(vib)   ...       0.10
freq.     651.07  E(vib)   ...       0.08
freq.     729.97  E(vib)   ...       0.06
freq.     784.79  E(vib)   ...       0.05
freq.     807.98  E(vib)   ...       0.05
freq.     849.41  E(vib)   ...       0.04
freq.     932.02  E(vib)   ...       0.03
freq.     984.99  E(vib)   ...       0.02
freq.     988.55  E(vib)   ...       0.02
freq.     989.31  E(vib)   ...       0.02
freq.     998.13  E(vib)   ...       0.02
freq.    1132.16  E(vib)   ...       0.01
freq.    1139.26  E(vib)   ...       0.01
freq.    1164.03  E(vib)   ...       0.01
freq.    1197.82  E(vib)   ...       0.01
freq.    1201.32  E(vib)   ...       0.01
freq.    1320.29  E(vib)   ...       0.01
freq.    1338.08  E(vib)   ...       0.01
freq.    1358.06  E(vib)   ...       0.01
freq.    1453.32  E(vib)   ...       0.00
freq.    1472.06  E(vib)   ...       0.00
freq.    1473.88  E(vib)   ...       0.00
freq.    1493.65  E(vib)   ...       0.00
freq.    1509.69  E(vib)   ...       0.00
freq.    1517.03  E(vib)   ...       0.00
freq.    1650.49  E(vib)   ...       0.00
freq.    2610.68  E(vib)   ...       0.00
freq.    3057.65  E(vib)   ...       0.00
freq.    3140.01  E(vib)   ...       0.00
freq.    3176.38  E(vib)   ...       0.00
freq.    3193.48  E(vib)   ...       0.00
freq.    3199.31  E(vib)   ...       0.00
freq.    3212.16  E(vib)   ...       0.00
freq.    3233.18  E(vib)   ...       0.00

------------
INNER ENERGY
------------

The inner energy is: U= E(el) + E(ZPE) + E(vib) + E(rot) + E(trans)
    E(el)   - is the total energy from the electronic structure calculation
              = E(kin-el) + E(nuc-el) + E(el-el) + E(nuc-nuc)
    E(ZPE)  - the the zero temperature vibrational energy from the frequency calculation
    E(vib)  - the the finite temperature correction to E(ZPE) due to population
              of excited vibrational states
    E(rot)  - is the rotational thermal energy
    E(trans)- is the translational thermal energy

Summary of contributions to the inner energy U:
Electronic energy                ...   -744.69840518 Eh
Zero point energy                ...      0.13166411 Eh      82.62 kcal/mol
Thermal vibrational correction   ...      0.00601694 Eh       3.78 kcal/mol
Thermal rotational correction    ...      0.00141627 Eh       0.89 kcal/mol
Thermal translational correction ...      0.00141627 Eh       0.89 kcal/mol
-----------------------------------------------------------------------
Total thermal energy                   -744.55789159 Eh

Summary of corrections to the electronic energy:
(perhaps to be used in another calculation)
Total thermal correction                  0.00884949 Eh       5.55 kcal/mol
Non-thermal (ZPE) correction              0.13166411 Eh      82.62 kcal/mol
-----------------------------------------------------------------------
Total correction                          0.14051359 Eh      88.17 kcal/mol

--------
ENTHALPY
--------

The enthalpy is H = U + kB*T
                kB is Boltzmann's constant
Total thermal energy              ...   -744.55789159 Eh
Thermal Enthalpy correction       ...      0.00094421 Eh       0.59 kcal/mol
-----------------------------------------------------------------------
Total Enthalpy                    ...   -744.55694738 Eh

Note: Only C1 symmetry has been detected, increase convergence thresholds
      if your molecule has a higher symmetry. Symmetry factor of 1.0 is
      used for the rotational entropy correction.

Note: Rotational entropy computed according to Herzberg
Infrared and Raman Spectra, Chapter V,1, Van Nostrand Reinhold, 1945
Point Group:  C1, Symmetry Number:   1
Rotational constants in cm-1:     0.155026     0.023770     0.020692

Vibrational entropy computed according to the QRRHO of S. Grimme
Chem.Eur.J. 2012 18 9955 using a reference frequency of 100.0 cm-1

-------
ENTROPY
-------

The entropy contributions are T*S = T*(S(el)+S(vib)+S(rot)+S(trans))
     S(el)   - electronic entropy
     S(vib)  - vibrational entropy
     S(rot)  - rotational entropy
     S(trans)- translational entropy
The entropies will be listed as multiplied by the temperature to get
units of energy

Electronic entropy                ...      0.00065446 Eh      0.41 kcal/mol
Vibrational entropy               ...      0.01010628 Eh      6.34 kcal/mol
Rotational entropy                ...      0.01398693 Eh      8.78 kcal/mol
Translational entropy             ...      0.01934980 Eh     12.14 kcal/mol
-----------------------------------------------------------------------
Final entropy term                ...      0.04409748 Eh     27.67 kcal/mol

In case the symmetry of your molecule has not been determined correctly
or in case you have a reason to use a different symmetry number we print
out the resulting rotational entropy values for sn=1,12:

 non-linear molecules -----------------------------------
|  sn= 1 | S(rot)=       0.01398693 Eh      8.78 kcal/mol|
|  sn= 2 | S(rot)=       0.01333248 Eh      8.37 kcal/mol|
|  sn= 3 | S(rot)=       0.01294965 Eh      8.13 kcal/mol|
|  sn= 4 | S(rot)=       0.01267802 Eh      7.96 kcal/mol|
|  sn= 5 | S(rot)=       0.01246733 Eh      7.82 kcal/mol|
|  sn= 6 | S(rot)=       0.01229519 Eh      7.72 kcal/mol|
|  sn= 7 | S(rot)=       0.01214964 Eh      7.62 kcal/mol|
|  sn= 8 | S(rot)=       0.01202356 Eh      7.54 kcal/mol|
|  sn= 9 | S(rot)=       0.01191236 Eh      7.48 kcal/mol|
|  sn=10 | S(rot)=       0.01181288 Eh      7.41 kcal/mol|
|  sn=11 | S(rot)=       0.01172289 Eh      7.36 kcal/mol|
|  sn=12 | S(rot)=       0.01164073 Eh      7.30 kcal/mol|
 linear molecules ---------------------------------------
|  Dinfh | S(rot)=       0.00898735 Eh      5.64 kcal/mol|

                             ****ORCA TERMINATED NORMALLY****
TOTAL RUN TIME: 0 days 0 hours 37 minutes 2 seconds 849 msec
