                         Program Version 6.0.0  -   RELEASE  -
|  1> !PBE0 aug-cc-pVTZ d3 TightSCF SlowConv RIJCOSX defgrid2
|  2>
|  3> %pal
|  4> nprocs 4
|  5> end
|  6>
|  7> %scf
|  8> MaxIter 1500
|  9> end
| 10>
| 11> %maxcore 3000
| 12>
| 13> !CPCM
| 14> %cpcm smd true
| 15> SMDsolvent "MeCN"
| 16> surfacetype gepol_ses
| 17> rsolv 2.19
| 18> end
| 19>
| 20> * xyz 0 1
| 21> C          -1.38053685940747     -1.21804540995532     -0.00011060626091
| 22> C           0.00880673788646     -1.21761505772678     -0.00009043075416
| 23> C           0.68407451418940     -0.00000826905018      0.00002079320919
| 24> C           0.00881895322689      1.21760888927779      0.00010917128456
| 25> C          -1.38052397185078      1.21805873995267      0.00009090964868
| 26> C          -2.05580079114724      0.00001020724702     -0.00001816987555
| 27> F          -3.38048726341071      0.00001804396249     -0.00003514545168
| 28> H          -1.95216629027619      2.14893818448022      0.00016183253789
| 29> H           0.58216467537740      2.14580924232628      0.00018829183514
| 30> N           2.15012174350491     -0.00002110651836      0.00004214105770
| 31> O           2.70660121926706     -1.07534719974692     -0.00006677256489
| 32> O           2.70659645313172      1.07532442371150     -0.00002414626605
| 33> H           0.58214126111558     -2.14581854067801     -0.00015767613729
| 34> H          -1.95219098160703     -2.14891564728239     -0.00019689226262
| 35> *
| 36>
| 37>                          ****END OF INPUT****

CARTESIAN COORDINATES (ANGSTROEM)
---------------------------------
  C     -1.380537   -1.218045   -0.000111
  C      0.008807   -1.217615   -0.000090
  C      0.684075   -0.000008    0.000021
  C      0.008819    1.217609    0.000109
  C     -1.380524    1.218059    0.000091
  C     -2.055801    0.000010   -0.000018
  F     -3.380487    0.000018   -0.000035
  H     -1.952166    2.148938    0.000162
  H      0.582165    2.145809    0.000188
  N      2.150122   -0.000021    0.000042
  O      2.706601   -1.075347   -0.000067
  O      2.706596    1.075324   -0.000024
  H      0.582141   -2.145819   -0.000158
  H     -1.952191   -2.148916   -0.000197

 Total Charge           Charge          ....    0
 Multiplicity           Mult            ....    1
 Number of Electrons    NEL             ....   72
 Basis Dimension        Dim             ....  552

ORBITAL ENERGIES
----------------

  NO   OCC          E(Eh)            E(eV)
   0   2.0000     -24.809768      -675.1081
   1   2.0000     -19.251676      -523.8647
   2   2.0000     -19.251668      -523.8645
   3   2.0000     -14.635584      -398.2545
   4   2.0000     -10.337231      -281.2904
   5   2.0000     -10.292519      -280.0737
   6   2.0000     -10.262480      -279.2563
   7   2.0000     -10.262477      -279.2562
   8   2.0000     -10.253345      -279.0077
   9   2.0000     -10.253339      -279.0075
  10   2.0000      -1.290991       -35.1297
  11   2.0000      -1.285316       -34.9752
  12   2.0000      -1.106433       -30.1076
  13   2.0000      -0.922091       -25.0914
  14   2.0000      -0.836253       -22.7556
  15   2.0000      -0.801261       -21.8034
  16   2.0000      -0.727442       -19.7947
  17   2.0000      -0.666549       -18.1377
  18   2.0000      -0.630139       -17.1470
  19   2.0000      -0.591142       -16.0858
  20   2.0000      -0.579077       -15.7575
  21   2.0000      -0.571604       -15.5541
  22   2.0000      -0.554669       -15.0933
  23   2.0000      -0.525900       -14.3105
  24   2.0000      -0.513552       -13.9745
  25   2.0000      -0.477206       -12.9854
  26   2.0000      -0.459866       -12.5136
  27   2.0000      -0.448145       -12.1946
  28   2.0000      -0.438317       -11.9272
  29   2.0000      -0.401297       -10.9198
  30   2.0000      -0.374575       -10.1927
  31   2.0000      -0.344341        -9.3700
  32   2.0000      -0.338922        -9.2225
  33   2.0000      -0.324609        -8.8331
  34   2.0000      -0.293683        -7.9915
  35   2.0000      -0.285061        -7.7569
  36   0.0000      -0.091531        -2.4907
  37   0.0000      -0.032179        -0.8756
  38   0.0000       0.003291         0.0896
  39   0.0000       0.003433         0.0934
  40   0.0000       0.018132         0.4934

MULLIKEN ATOMIC CHARGES
-----------------------
   0 C :   -0.621709
   1 C :   -0.524273
   2 C :    0.273999
   3 C :   -0.526557
   4 C :   -0.622784
   5 C :    0.553101
   6 F :   -0.432942
   7 H :    0.489723
   8 H :    0.724562
   9 N :    0.856575
  10 O :   -0.691741
  11 O :   -0.691754
  12 H :    0.725071
  13 H :    0.488729
Sum of atomic charges:   -0.0000000

LOEWDIN ATOMIC CHARGES
----------------------
   0 C :    0.212087
   1 C :    0.196683
   2 C :   -0.244741
   3 C :    0.196678
   4 C :    0.212083
   5 C :   -0.539182
   6 F :    0.567375
   7 H :   -0.157080
   8 H :   -0.180584
   9 N :   -0.759353
  10 O :    0.416854
  11 O :    0.416844
  12 H :   -0.180582
  13 H :   -0.157084

  Mayer bond orders larger than 0.100000
B(  0-C ,  1-C ) :   1.3905 B(  0-C ,  2-C ) :  -0.3177 B(  0-C ,  4-C ) :   0.1600
B(  0-C ,  5-C ) :   1.3974 B(  0-C ,  6-F ) :   0.2233 B(  0-C , 13-H ) :   0.5065
B(  1-C ,  2-C ) :   1.0729 B(  1-C ,  3-C ) :   0.1111 B(  1-C ,  9-N ) :  -0.1915
B(  1-C , 12-H ) :   0.1563 B(  2-C ,  3-C ) :   1.0742 B(  2-C ,  4-C ) :  -0.3177
B(  2-C ,  9-N ) :   1.1415 B(  2-C , 10-O ) :   0.3527 B(  2-C , 11-O ) :   0.3537
B(  3-C ,  4-C ) :   1.3920 B(  3-C ,  8-H ) :   0.1567 B(  3-C ,  9-N ) :  -0.1883
B(  4-C ,  5-C ) :   1.3972 B(  4-C ,  6-F ) :   0.2264 B(  4-C ,  7-H ) :   0.5061
B(  5-C ,  6-F ) :   0.1888 B(  6-F ,  7-H ) :   0.1547 B(  6-F , 13-H ) :   0.1556
B(  9-N , 10-O ) :   0.8907 B(  9-N , 11-O ) :   0.8914 B( 10-O , 11-O ) :   0.1695

Dispersion correction           -0.012683335
FINAL SINGLE POINT ENERGY      -535.632920079939

DIPOLE MOMENT
-------------

Method             : SCF
Type of density    : Electron Density
Multiplicity       :   1
Irrep              :   0
Energy             :  -535.6202367448204313 Eh
Relativity type    :
Basis              : AO
                                X                 Y                 Z
Electronic contribution:     -2.289127892      -0.000031132       0.000148152
Nuclear contribution   :      0.647078379      -0.000000805       0.000058033
                        -----------------------------------------
Total Dipole Moment    :     -1.642049513      -0.000031937       0.000206185
                        -----------------------------------------
Magnitude (a.u.)       :      1.642049526
Magnitude (Debye)      :      4.173758201

Rotational constants in cm-1:             0.132896             0.026895             0.022368
Rotational constants in MHz :          3984.136470           806.287592           670.579423

                             ****ORCA TERMINATED NORMALLY****
TOTAL RUN TIME: 0 days 0 hours 3 minutes 12 seconds 103 msec
