                         Program Version 6.0.0  -   RELEASE  -
|  1> !PBE0 freq def2-SV(p) d3 TightSCF SlowConv RIJCOSX defgrid2
|  2>
|  3> %pal
|  4> nprocs 12
|  5> end
|  6>
|  7> %scf
|  8> MaxIter 1500
|  9> end
| 10>
| 11> %maxcore 5000
| 12>
| 13> !CPCM
| 14> %cpcm smd true
| 15> SMDsolvent "MeCN"
| 16> surfacetype gepol_ses
| 17> rsolv 2.19
| 18> end
| 19>
| 20> * xyz 0 1
| 21> C           2.40481955159202     -0.84318523236145      0.66544422673898
| 22> C           1.27487251350868     -0.39547626575520     -0.03711765117464
| 23> C           1.38734999633019      0.77827946227567     -0.80035043540922
| 24> C           2.59447422348058      1.47062806607823     -0.87334582308636
| 25> C           3.71196930451870      1.00997426992960     -0.17485041404798
| 26> C           3.61148137461806     -0.14878814488009      0.59663934588205
| 27> H           4.47776264206944     -0.51097571154157      1.15880191881276
| 28> H           4.65783925417296      1.55779604357226     -0.22589428656335
| 29> H           2.66276985595120      2.37782866066816     -1.48157128834009
| 30> H           0.51945949504450      1.14722976422839     -1.35475810369414
| 31> C          -0.00001225303301     -1.15759535927387      0.00005215341109
| 32> C           0.00003845358655     -2.50441379586921     -0.00002108732244
| 33> H          -0.93254746393268     -3.07545765013236      0.07117873668010
| 34> H           0.93267642552387     -3.07536464584256     -0.07131895318495
| 35> C          -1.27493248684021     -0.39554176170869      0.03723158351638
| 36> C          -2.40483054260556     -0.84317160499371     -0.66544656387461
| 37> C          -3.61145637475591     -0.14869736748634     -0.59676450010248
| 38> C          -3.71196335786590      1.01007044868945      0.17470604639860
| 39> C          -2.59453249061839      1.47063225231107      0.87334745294679
| 40> C          -1.38748651417971      0.77816690078571      0.80049284882024
| 41> H          -0.51966664654650      1.14699887976811      1.35508270476548
| 42> H          -2.66282303474380      2.37782566902211      1.48158317723639
| 43> H          -4.65779793894321      1.55796463471701      0.22562562324172
| 44> H          -4.47769799730487     -0.51083905300715     -1.15901640655114
| 45> H          -2.32959495770409     -1.73833244437018     -1.28980543377532
| 46> H           2.32959886867710     -1.73835001482339      1.28979862867613
| 47> *
| 48>
| 49>                          ****END OF INPUT****

CARTESIAN COORDINATES (ANGSTROEM)
---------------------------------
  C      2.404820   -0.843185    0.665444
  C      1.274873   -0.395476   -0.037118
  C      1.387350    0.778279   -0.800350
  C      2.594474    1.470628   -0.873346
  C      3.711969    1.009974   -0.174850
  C      3.611481   -0.148788    0.596639
  H      4.477763   -0.510976    1.158802
  H      4.657839    1.557796   -0.225894
  H      2.662770    2.377829   -1.481571
  H      0.519459    1.147230   -1.354758
  C     -0.000012   -1.157595    0.000052
  C      0.000038   -2.504414   -0.000021
  H     -0.932547   -3.075458    0.071179
  H      0.932676   -3.075365   -0.071319
  C     -1.274932   -0.395542    0.037232
  C     -2.404831   -0.843172   -0.665447
  C     -3.611456   -0.148697   -0.596765
  C     -3.711963    1.010070    0.174706
  C     -2.594532    1.470632    0.873347
  C     -1.387487    0.778167    0.800493
  H     -0.519667    1.146999    1.355083
  H     -2.662823    2.377826    1.481583
  H     -4.657798    1.557965    0.225626
  H     -4.477698   -0.510839   -1.159016
  H     -2.329595   -1.738332   -1.289805
  H      2.329599   -1.738350    1.289799

 Total Charge           Charge          ....    0
 Multiplicity           Mult            ....    1
 Number of Electrons    NEL             ....   96
 Basis Dimension        Dim             ....  220

ORBITAL ENERGIES
----------------

  NO   OCC          E(Eh)            E(eV)
   0   2.0000     -10.254256      -279.0325
   1   2.0000     -10.251143      -278.9478
   2   2.0000     -10.251113      -278.9470
   3   2.0000     -10.238086      -278.5925
   4   2.0000     -10.238060      -278.5918
   5   2.0000     -10.237744      -278.5832
   6   2.0000     -10.237738      -278.5830
   7   2.0000     -10.237314      -278.5715
   8   2.0000     -10.237309      -278.5714
   9   2.0000     -10.237035      -278.5639
  10   2.0000     -10.237025      -278.5636
  11   2.0000     -10.236715      -278.5552
  12   2.0000     -10.236709      -278.5550
  13   2.0000     -10.228312      -278.3265
  14   2.0000      -0.891835       -24.2681
  15   2.0000      -0.875309       -23.8184
  16   2.0000      -0.824119       -22.4254
  17   2.0000      -0.765477       -20.8297
  18   2.0000      -0.765449       -20.8289
  19   2.0000      -0.759606       -20.6699
  20   2.0000      -0.733486       -19.9592
  21   2.0000      -0.647280       -17.6134
  22   2.0000      -0.624155       -16.9841
  23   2.0000      -0.614679       -16.7263
  24   2.0000      -0.612032       -16.6542
  25   2.0000      -0.566110       -15.4046
  26   2.0000      -0.540389       -14.7047
  27   2.0000      -0.514092       -13.9892
  28   2.0000      -0.481303       -13.0969
  29   2.0000      -0.478170       -13.0117
  30   2.0000      -0.465432       -12.6650
  31   2.0000      -0.454174       -12.3587
  32   2.0000      -0.452660       -12.3175
  33   2.0000      -0.433873       -11.8063
  34   2.0000      -0.433432       -11.7943
  35   2.0000      -0.431020       -11.7286
  36   2.0000      -0.396893       -10.8000
  37   2.0000      -0.388972       -10.5845
  38   2.0000      -0.388740       -10.5781
  39   2.0000      -0.369591       -10.0571
  40   2.0000      -0.358638        -9.7590
  41   2.0000      -0.351007        -9.5514
  42   2.0000      -0.345686        -9.4066
  43   2.0000      -0.316894        -8.6231
  44   2.0000      -0.275346        -7.4926
  45   2.0000      -0.271511        -7.3882
  46   2.0000      -0.268714        -7.3121
  47   2.0000      -0.238011        -6.4766
  48   0.0000      -0.040241        -1.0950
  49   0.0000      -0.015201        -0.4136
  50   0.0000      -0.011446        -0.3115
  51   0.0000       0.001002         0.0273
  52   0.0000       0.057603         1.5674

MULLIKEN ATOMIC CHARGES
-----------------------
   0 C :   -0.159478
   1 C :    0.027855
   2 C :   -0.143618
   3 C :   -0.122543
   4 C :   -0.114286
   5 C :   -0.120183
   6 H :    0.125630
   7 H :    0.127016
   8 H :    0.125750
   9 H :    0.123597
  10 C :    0.016816
  11 C :   -0.300844
  12 H :    0.154756
  13 H :    0.154765
  14 C :    0.028080
  15 C :   -0.159509
  16 C :   -0.120173
  17 C :   -0.114288
  18 C :   -0.122310
  19 C :   -0.143524
  20 H :    0.123074
  21 H :    0.125749
  22 H :    0.127005
  23 H :    0.125623
  24 H :    0.117517
  25 H :    0.117525
Sum of atomic charges:    0.0000000

LOEWDIN ATOMIC CHARGES
----------------------
   0 C :   -0.125531
   1 C :   -0.044992
   2 C :   -0.124427
   3 C :   -0.136937
   4 C :   -0.137711
   5 C :   -0.136714
   6 H :    0.142839
   7 H :    0.142385
   8 H :    0.142825
   9 H :    0.141323
  10 C :   -0.040318
  11 C :   -0.245845
  12 H :    0.138366
  13 H :    0.138371
  14 C :   -0.044935
  15 C :   -0.125525
  16 C :   -0.136694
  17 C :   -0.137683
  18 C :   -0.136844
  19 C :   -0.124400
  20 H :    0.141086
  21 H :    0.142828
  22 H :    0.142380
  23 H :    0.142835
  24 H :    0.141657
  25 H :    0.141660

  Mayer bond orders larger than 0.100000
B(  0-C ,  1-C ) :   1.3730 B(  0-C ,  5-C ) :   1.3848 B(  0-C , 25-H ) :   0.9586
B(  1-C ,  2-C ) :   1.3702 B(  1-C , 10-C ) :   1.0006 B(  2-C ,  3-C ) :   1.3921
B(  2-C ,  9-H ) :   0.9540 B(  3-C ,  4-C ) :   1.3750 B(  3-C ,  8-H ) :   0.9629
B(  4-C ,  5-C ) :   1.3756 B(  4-C ,  7-H ) :   0.9643 B(  5-C ,  6-H ) :   0.9626
B( 10-C , 11-C ) :   1.9592 B( 10-C , 14-C ) :   1.0006 B( 11-C , 12-H ) :   0.9071
B( 11-C , 13-H ) :   0.9071 B( 14-C , 15-C ) :   1.3731 B( 14-C , 19-C ) :   1.3702
B( 15-C , 16-C ) :   1.3848 B( 15-C , 24-H ) :   0.9586 B( 16-C , 17-C ) :   1.3756
B( 16-C , 23-H ) :   0.9626 B( 17-C , 18-C ) :   1.3750 B( 17-C , 22-H ) :   0.9643
B( 18-C , 19-C ) :   1.3921 B( 18-C , 21-H ) :   0.9629 B( 19-C , 20-H ) :   0.9541

Dispersion correction           -0.028903309
FINAL SINGLE POINT ENERGY      -539.686728232691

DIPOLE MOMENT
-------------

Method             : SCF
Type of density    : Electron Density
Multiplicity       :   1
Irrep              :   0
Energy             :  -539.6578249234039504 Eh
Relativity type    :
Basis              : AO
                                X                 Y                 Z
Electronic contribution:     -0.000869519       0.612354951      -0.000459417
Nuclear contribution   :      0.000137676      -0.483998563      -0.000269927
                        -----------------------------------------
Total Dipole Moment    :     -0.000731844       0.128356388      -0.000729343
                        -----------------------------------------
Magnitude (a.u.)       :      0.128360547
Magnitude (Debye)      :      0.326266581

VIBRATIONAL FREQUENCIES
-----------------------

Scaling factor for frequencies =  1.000000000  (already applied!)

     0:       0.00 cm**-1
     1:       0.00 cm**-1
     2:       0.00 cm**-1
     3:       0.00 cm**-1
     4:       0.00 cm**-1
     5:       0.00 cm**-1
     6:      40.19 cm**-1
     7:      60.22 cm**-1
     8:      79.95 cm**-1
     9:     137.62 cm**-1
    10:     220.11 cm**-1
    11:     236.43 cm**-1
    12:     298.77 cm**-1
    13:     344.17 cm**-1
    14:     419.19 cm**-1
    15:     423.79 cm**-1
    16:     451.24 cm**-1
    17:     460.82 cm**-1
    18:     579.20 cm**-1
    19:     599.56 cm**-1
    20:     624.39 cm**-1
    21:     628.54 cm**-1
    22:     657.75 cm**-1
    23:     705.88 cm**-1
    24:     721.08 cm**-1
    25:     724.47 cm**-1
    26:     739.88 cm**-1
    27:     804.75 cm**-1
    28:     810.17 cm**-1
    29:     852.41 cm**-1
    30:     868.62 cm**-1
    31:     868.82 cm**-1
    32:     925.57 cm**-1
    33:     954.49 cm**-1
    34:     954.98 cm**-1
    35:    1007.83 cm**-1
    36:    1008.29 cm**-1
    37:    1014.43 cm**-1
    38:    1015.32 cm**-1
    39:    1030.83 cm**-1
    40:    1030.91 cm**-1
    41:    1055.92 cm**-1
    42:    1059.39 cm**-1
    43:    1084.94 cm**-1
    44:    1104.51 cm**-1
    45:    1108.90 cm**-1
    46:    1151.72 cm**-1
    47:    1151.81 cm**-1
    48:    1180.56 cm**-1
    49:    1181.28 cm**-1
    50:    1190.51 cm**-1
    51:    1320.43 cm**-1
    52:    1330.83 cm**-1
    53:    1368.33 cm**-1
    54:    1393.68 cm**-1
    55:    1393.82 cm**-1
    56:    1422.07 cm**-1
    57:    1483.75 cm**-1
    58:    1485.01 cm**-1
    59:    1533.84 cm**-1
    60:    1543.79 cm**-1
    61:    1655.74 cm**-1
    62:    1658.09 cm**-1
    63:    1686.32 cm**-1
    64:    1687.72 cm**-1
    65:    1703.00 cm**-1
    66:    3165.07 cm**-1
    67:    3195.45 cm**-1
    68:    3195.58 cm**-1
    69:    3201.30 cm**-1
    70:    3201.70 cm**-1
    71:    3208.79 cm**-1
    72:    3209.03 cm**-1
    73:    3214.42 cm**-1
    74:    3214.65 cm**-1
    75:    3222.06 cm**-1
    76:    3222.19 cm**-1
    77:    3252.54 cm**-1

IR SPECTRUM
-----------

 Mode   freq       eps      Int      T**2         TX        TY        TZ
       cm**-1   L/(mol*cm) km/mol    a.u.
----------------------------------------------------------------------------
  6:     40.19   0.000018    0.09  0.000142  (-0.006359  0.000042  0.010061)
  7:     60.22   0.000014    0.07  0.000073  ( 0.000074 -0.008551 -0.000044)
  8:     79.95   0.000071    0.36  0.000277  ( 0.000023  0.016654 -0.000014)
  9:    137.62   0.000602    3.04  0.001365  (-0.003309  0.000016 -0.036801)
 10:    220.11   0.000030    0.15  0.000043  (-0.000040  0.006551 -0.000024)
 11:    236.43   0.000118    0.60  0.000156  (-0.007122 -0.000054 -0.010278)
 12:    298.77   0.000051    0.26  0.000053  ( 0.000002 -0.007299  0.000015)
 13:    344.17   0.000413    2.09  0.000374  (-0.019237  0.000003 -0.002039)
 14:    419.19   0.000004    0.02  0.000003  (-0.001526  0.000055 -0.000732)
 15:    423.79   0.000054    0.27  0.000040  (-0.000051 -0.006322  0.000005)
 16:    451.24   0.000267    1.35  0.000185  (-0.000023 -0.013596  0.000035)
 17:    460.82   0.001589    8.03  0.001076  ( 0.006402 -0.000004 -0.032176)
 18:    579.20   0.002412   12.19  0.001300  ( 0.000011  0.036051 -0.000014)
 19:    599.56   0.004642   23.46  0.002416  (-0.045157 -0.000069  0.019411)
 20:    624.39   0.000450    2.28  0.000225  (-0.013722  0.000014  0.006061)
 21:    628.54   0.000034    0.17  0.000017  (-0.000011  0.004120 -0.000039)
 22:    657.75   0.003172   16.03  0.001505  ( 0.025860  0.000035 -0.028914)
 23:    705.88   0.001014    5.13  0.000448  (-0.000052 -0.021176  0.000063)
 24:    721.08   0.019622   99.16  0.008492  (-0.035493 -0.000824  0.085038)
 25:    724.47   0.008201   41.44  0.003533  (-0.000475  0.059423  0.001154)
 26:    739.88   0.000058    0.29  0.000024  ( 0.000016 -0.004946 -0.000002)
 27:    804.75   0.011059   55.89  0.004288  ( 0.002437 -0.000066  0.065440)
 28:    810.17   0.005729   28.95  0.002207  ( 0.000032  0.046975  0.000082)
 29:    852.41   0.000022    0.11  0.000008  (-0.001188  0.000023 -0.002604)
 30:    868.62   0.000060    0.31  0.000022  ( 0.002467 -0.003786 -0.001133)
 31:    868.82   0.000057    0.29  0.000021  (-0.002985 -0.003112  0.001409)
 32:    925.57   0.013737   69.42  0.004632  ( 0.016512  0.000053  0.066022)
 33:    954.49   0.000832    4.20  0.000272  ( 0.001401  0.016337 -0.001742)
 34:    954.98   0.000403    2.04  0.000132  (-0.006583  0.003430  0.008750)
 35:   1007.83   0.000148    0.75  0.000046  (-0.006626  0.000790 -0.001093)
 36:   1008.29   0.000068    0.34  0.000021  (-0.001193 -0.004430 -0.000142)
 37:   1014.43   0.000548    2.77  0.000169  (-0.012887 -0.000098 -0.001598)
 38:   1015.32   0.000118    0.60  0.000036  ( 0.000187 -0.006023  0.000043)
 39:   1030.83   0.000076    0.39  0.000023  (-0.004081 -0.000022  0.002549)
 40:   1030.91   0.000011    0.05  0.000003  (-0.001532  0.000072  0.000971)
 41:   1055.92   0.005886   29.74  0.001739  ( 0.041707  0.000107 -0.000005)
 42:   1059.39   0.001146    5.79  0.000337  (-0.000160  0.018370  0.000013)
 43:   1084.94   0.001195    6.04  0.000344  (-0.011837  0.000004 -0.014264)
 44:   1104.51   0.002863   14.47  0.000809  (-0.000003  0.028439  0.000009)
 45:   1108.90   0.002426   12.26  0.000683  (-0.008754 -0.000018 -0.024619)
 46:   1151.72   0.000002    0.01  0.000000  ( 0.000659 -0.000019 -0.000095)
 47:   1151.81   0.000002    0.01  0.000001  (-0.000019 -0.000762  0.000001)
 48:   1180.56   0.000173    0.87  0.000046  ( 0.006753 -0.000015  0.000054)
 49:   1181.28   0.000014    0.07  0.000004  ( 0.000053  0.001905  0.000016)
 50:   1190.51   0.000101    0.51  0.000026  ( 0.000003  0.005139 -0.000001)
 51:   1320.43   0.000635    3.21  0.000150  ( 0.011417 -0.000026 -0.004438)
 52:   1330.83   0.000073    0.37  0.000017  ( 0.000003 -0.004124 -0.000010)
 53:   1368.33   0.005817   29.40  0.001327  (-0.036251  0.000021  0.003546)
 54:   1393.68   0.002271   11.48  0.000509  (-0.022095 -0.000112  0.004516)
 55:   1393.82   0.000032    0.16  0.000007  (-0.002415  0.001017  0.000500)
 56:   1422.07   0.001782    9.00  0.000391  (-0.000014 -0.019773 -0.000012)
 57:   1483.75   0.003754   18.97  0.000789  ( 0.022050 -0.000187  0.017413)
 58:   1485.01   0.001645    8.32  0.000346  ( 0.000220  0.018593  0.000172)
 59:   1533.84   0.003397   17.17  0.000691  (-0.000029 -0.026289  0.000006)
 60:   1543.79   0.003359   16.98  0.000679  (-0.025960  0.000070  0.002271)
 61:   1655.74   0.001531    7.74  0.000289  (-0.000005 -0.016989  0.000056)
 62:   1658.09   0.000440    2.22  0.000083  (-0.000225 -0.000184 -0.009095)
 63:   1686.32   0.000438    2.22  0.000081  ( 0.009001  0.000122  0.000308)
 64:   1687.72   0.000577    2.92  0.000107  ( 0.000131 -0.010330  0.000010)
 65:   1703.00   0.004202   21.23  0.000770  (-0.000000 -0.027747  0.000009)
 66:   3165.07   0.000340    1.72  0.000034  ( 0.000008  0.005790 -0.000005)
 67:   3195.45   0.000750    3.79  0.000073  ( 0.008528  0.000128 -0.000695)
 68:   3195.58   0.000194    0.98  0.000019  ( 0.000249 -0.004345 -0.000012)
 69:   3201.30   0.000036    0.18  0.000003  ( 0.000015 -0.000065  0.001864)
 70:   3201.70   0.000097    0.49  0.000009  ( 0.000010  0.003080  0.000040)
 71:   3208.79   0.003746   18.93  0.000364  ( 0.019022  0.000322 -0.001554)
 72:   3209.03   0.000905    4.58  0.000088  ( 0.000757 -0.009352 -0.000090)
 73:   3214.42   0.006119   30.92  0.000594  (-0.014092  0.001024 -0.019860)
 74:   3214.65   0.004699   23.75  0.000456  (-0.000739 -0.021324 -0.000943)
 75:   3222.06   0.003379   17.07  0.000327  (-0.018054 -0.000756  0.000842)
 76:   3222.19   0.001289    6.51  0.000125  (-0.001273  0.011098  0.000085)
 77:   3252.54   0.000734    3.71  0.000070  (-0.008385 -0.000017  0.000402)

--------------------------
THERMOCHEMISTRY AT 298.15K
--------------------------

Temperature         ...   298.15 K
Pressure            ...     1.00 atm
Total Mass          ...   180.25 AMU
Quasi RRHO          ...     True
Cut-Off Frequency   ...     1.00 cm^-1

Throughout the following assumptions are being made:
  (1) The electronic state is orbitally nondegenerate
  (2) There are no thermally accessible electronically excited states
  (3) Hindered rotations indicated by low frequency modes are not
      treated as such but are treated as vibrations and this may
      cause some error
  (4) All equations used are the standard statistical mechanics
      equations for an ideal gas
  (5) All vibrations are strictly harmonic

freq.      40.19  E(vib)   ...       0.54
freq.      60.22  E(vib)   ...       0.51
freq.      79.95  E(vib)   ...       0.49
freq.     137.62  E(vib)   ...       0.42
freq.     220.11  E(vib)   ...       0.33
freq.     236.43  E(vib)   ...       0.32
freq.     298.77  E(vib)   ...       0.26
freq.     344.17  E(vib)   ...       0.23
freq.     419.19  E(vib)   ...       0.18
freq.     423.79  E(vib)   ...       0.18
freq.     451.24  E(vib)   ...       0.16
freq.     460.82  E(vib)   ...       0.16
freq.     579.20  E(vib)   ...       0.11
freq.     599.56  E(vib)   ...       0.10
freq.     624.39  E(vib)   ...       0.09
freq.     628.54  E(vib)   ...       0.09
freq.     657.75  E(vib)   ...       0.08
freq.     705.88  E(vib)   ...       0.07
freq.     721.08  E(vib)   ...       0.07
freq.     724.47  E(vib)   ...       0.06
freq.     739.88  E(vib)   ...       0.06
freq.     804.75  E(vib)   ...       0.05
freq.     810.17  E(vib)   ...       0.05
freq.     852.41  E(vib)   ...       0.04
freq.     868.62  E(vib)   ...       0.04
freq.     868.82  E(vib)   ...       0.04
freq.     925.57  E(vib)   ...       0.03
freq.     954.49  E(vib)   ...       0.03
freq.     954.98  E(vib)   ...       0.03
freq.    1007.83  E(vib)   ...       0.02
freq.    1008.29  E(vib)   ...       0.02
freq.    1014.43  E(vib)   ...       0.02
freq.    1015.32  E(vib)   ...       0.02
freq.    1030.83  E(vib)   ...       0.02
freq.    1030.91  E(vib)   ...       0.02
freq.    1055.92  E(vib)   ...       0.02
freq.    1059.39  E(vib)   ...       0.02
freq.    1084.94  E(vib)   ...       0.02
freq.    1104.51  E(vib)   ...       0.02
freq.    1108.90  E(vib)   ...       0.02
freq.    1151.72  E(vib)   ...       0.01
freq.    1151.81  E(vib)   ...       0.01
freq.    1180.56  E(vib)   ...       0.01
freq.    1181.28  E(vib)   ...       0.01
freq.    1190.51  E(vib)   ...       0.01
freq.    1320.43  E(vib)   ...       0.01
freq.    1330.83  E(vib)   ...       0.01
freq.    1368.33  E(vib)   ...       0.01
freq.    1393.68  E(vib)   ...       0.00
freq.    1393.82  E(vib)   ...       0.00
freq.    1422.07  E(vib)   ...       0.00
freq.    1483.75  E(vib)   ...       0.00
freq.    1485.01  E(vib)   ...       0.00
freq.    1533.84  E(vib)   ...       0.00
freq.    1543.79  E(vib)   ...       0.00
freq.    1655.74  E(vib)   ...       0.00
freq.    1658.09  E(vib)   ...       0.00
freq.    1686.32  E(vib)   ...       0.00
freq.    1687.72  E(vib)   ...       0.00
freq.    1703.00  E(vib)   ...       0.00
freq.    3165.07  E(vib)   ...       0.00
freq.    3195.45  E(vib)   ...       0.00
freq.    3195.58  E(vib)   ...       0.00
freq.    3201.30  E(vib)   ...       0.00
freq.    3201.70  E(vib)   ...       0.00
freq.    3208.79  E(vib)   ...       0.00
freq.    3209.03  E(vib)   ...       0.00
freq.    3214.42  E(vib)   ...       0.00
freq.    3214.65  E(vib)   ...       0.00
freq.    3222.06  E(vib)   ...       0.00
freq.    3222.19  E(vib)   ...       0.00
freq.    3252.54  E(vib)   ...       0.00

------------
INNER ENERGY
------------

The inner energy is: U= E(el) + E(ZPE) + E(vib) + E(rot) + E(trans)
    E(el)   - is the total energy from the electronic structure calculation
              = E(kin-el) + E(nuc-el) + E(el-el) + E(nuc-nuc)
    E(ZPE)  - the the zero temperature vibrational energy from the frequency calculation
    E(vib)  - the the finite temperature correction to E(ZPE) due to population
              of excited vibrational states
    E(rot)  - is the rotational thermal energy
    E(trans)- is the translational thermal energy

Summary of contributions to the inner energy U:
Electronic energy                ...   -539.68672823 Eh
Zero point energy                ...      0.21583218 Eh     135.44 kcal/mol
Thermal vibrational correction   ...      0.00819070 Eh       5.14 kcal/mol
Thermal rotational correction    ...      0.00141627 Eh       0.89 kcal/mol
Thermal translational correction ...      0.00141627 Eh       0.89 kcal/mol
-----------------------------------------------------------------------
Total thermal energy                   -539.45987281 Eh

Summary of corrections to the electronic energy:
(perhaps to be used in another calculation)
Total thermal correction                  0.01102325 Eh       6.92 kcal/mol
Non-thermal (ZPE) correction              0.21583218 Eh     135.44 kcal/mol
-----------------------------------------------------------------------
Total correction                          0.22685543 Eh     142.35 kcal/mol

--------
ENTHALPY
--------

The enthalpy is H = U + kB*T
                kB is Boltzmann's constant
Total thermal energy              ...   -539.45987281 Eh
Thermal Enthalpy correction       ...      0.00094421 Eh       0.59 kcal/mol
-----------------------------------------------------------------------
Total Enthalpy                    ...   -539.45892860 Eh

Note: Only C1 symmetry has been detected, increase convergence thresholds
      if your molecule has a higher symmetry. Symmetry factor of 1.0 is
      used for the rotational entropy correction.

Note: Rotational entropy computed according to Herzberg
Infrared and Raman Spectra, Chapter V,1, Van Nostrand Reinhold, 1945
Point Group:  C1, Symmetry Number:   1
Rotational constants in cm-1:     0.053280     0.013933     0.012125

Vibrational entropy computed according to the QRRHO of S. Grimme
Chem.Eur.J. 2012 18 9955 using a reference frequency of 100.0 cm-1

-------
ENTROPY
-------

The entropy contributions are T*S = T*(S(el)+S(vib)+S(rot)+S(trans))
     S(el)   - electronic entropy
     S(vib)  - vibrational entropy
     S(rot)  - rotational entropy
     S(trans)- translational entropy
The entropies will be listed as multiplied by the temperature to get
units of energy

                             ****ORCA TERMINATED NORMALLY****
TOTAL RUN TIME: 0 days 0 hours 7 minutes 54 seconds 97 msec
