                         Program Version 6.0.0  -   RELEASE  -
|  1> !B3LYP aug-cc-pVTZ d3 TightSCF SlowConv RIJCOSX defgrid2
|  2>
|  3> %pal
|  4> nprocs 4
|  5> end
|  6>
|  7> %scf
|  8> MaxIter 1500
|  9> end
| 10>
| 11> %maxcore 3000
| 12>
| 13> !CPCM
| 14> %cpcm smd true
| 15> SMDsolvent "MeCN"
| 16> surfacetype gepol_ses
| 17> rsolv 2.19
| 18> end
| 19>
| 20> * xyz 1 2
| 21> C           4.10305459754862      1.22314281313599      0.00027521208978
| 22> C           4.79422039490347      0.00010404925663      0.00001474520982
| 23> C           4.10316750393443     -1.22299872812941     -0.00027809333468
| 24> C           2.72290951060849     -1.23322125226980     -0.00030728966902
| 25> C           2.00889918594533     -0.00002719804681     -0.00003028315102
| 26> C           2.72279658019783      1.23323312421706      0.00025720757138
| 27> H           2.16604305248318      2.17317802213121      0.00045841677356
| 28> C           0.61901432200333     -0.00007429013767     -0.00003574573307
| 29> C          -0.61901896459109     -0.00007733941421     -0.00002817694639
| 30> C          -2.00890183862324     -0.00001737756946      0.00000366265820
| 31> C          -2.72291439835066     -1.23320607784155      0.00031293455070
| 32> C          -4.10317069141964     -1.22298169255025      0.00034320554116
| 33> C          -4.79421968584138      0.00012496763477      0.00007504669623
| 34> C          -4.10304842490867      1.22316147289229     -0.00022860923121
| 35> C          -2.72279167353165      1.23324700039037     -0.00027265723971
| 36> H          -2.16603414552242      2.17318982303946     -0.00050220004345
| 37> H          -4.65909006495211      2.16415224923801     -0.00043329601508
| 38> H          -5.88829015885600      0.00017960004272      0.00010113825142
| 39> H          -4.65930720000531     -2.16391674544739      0.00057854154628
| 40> H          -2.16624983163931     -2.17320454462336      0.00052121598527
| 41> H           2.16624496851568     -2.17322025060010     -0.00052876061055
| 42> H           4.65930013671208     -2.16393287374248     -0.00048580415313
| 43> H           5.88829198918564      0.00015431021773      0.00003862697270
| 44> H           4.65910043620338      2.16413103817623      0.00049636228080
| 45> *
| 46>
| 47>                          ****END OF INPUT****

CARTESIAN COORDINATES (ANGSTROEM)
---------------------------------
  C      4.103055    1.223143    0.000275
  C      4.794220    0.000104    0.000015
  C      4.103168   -1.222999   -0.000278
  C      2.722910   -1.233221   -0.000307
  C      2.008899   -0.000027   -0.000030
  C      2.722797    1.233233    0.000257
  H      2.166043    2.173178    0.000458
  C      0.619014   -0.000074   -0.000036
  C     -0.619019   -0.000077   -0.000028
  C     -2.008902   -0.000017    0.000004
  C     -2.722914   -1.233206    0.000313
  C     -4.103171   -1.222982    0.000343
  C     -4.794220    0.000125    0.000075
  C     -4.103048    1.223161   -0.000229
  C     -2.722792    1.233247   -0.000273
  H     -2.166034    2.173190   -0.000502
  H     -4.659090    2.164152   -0.000433
  H     -5.888290    0.000180    0.000101
  H     -4.659307   -2.163917    0.000579
  H     -2.166250   -2.173205    0.000521
  H      2.166245   -2.173220   -0.000529
  H      4.659300   -2.163933   -0.000486
  H      5.888292    0.000154    0.000039
  H      4.659100    2.164131    0.000496

 Total Charge           Charge          ....    1
 Multiplicity           Mult            ....    2
 Number of Electrons    NEL             ....   93
 Basis Dimension        Dim             ....  874

ORBITAL ENERGIES
----------------
                 SPIN UP ORBITALS
  NO   OCC          E(Eh)            E(eV)
   0   1.0000     -10.245403      -278.7916
   1   1.0000     -10.245397      -278.7914
   2   1.0000     -10.241897      -278.6962
   3   1.0000     -10.239959      -278.6435
   4   1.0000     -10.219832      -278.0958
   5   1.0000     -10.219823      -278.0955
   6   1.0000     -10.218162      -278.0503
   7   1.0000     -10.218142      -278.0498
   8   1.0000     -10.218140      -278.0497
   9   1.0000     -10.218136      -278.0496
  10   1.0000     -10.203559      -277.6530
  11   1.0000     -10.203553      -277.6528
  12   1.0000     -10.203551      -277.6527
  13   1.0000     -10.203544      -277.6525
  14   1.0000      -0.900940       -24.5158
  15   1.0000      -0.894981       -24.3537
  16   1.0000      -0.837152       -22.7801
  17   1.0000      -0.802424       -21.8351
  18   1.0000      -0.779607       -21.2142
  19   1.0000      -0.779407       -21.2088
  20   1.0000      -0.756835       -20.5945
  21   1.0000      -0.672737       -18.3061
  22   1.0000      -0.643691       -17.5157
  23   1.0000      -0.634458       -17.2645
  24   1.0000      -0.632668       -17.2158
  25   1.0000      -0.572248       -15.5717
  26   1.0000      -0.557436       -15.1686
  27   1.0000      -0.510724       -13.8975
  28   1.0000      -0.502207       -13.6657
  29   1.0000      -0.492449       -13.4002
  30   1.0000      -0.486587       -13.2407
  31   1.0000      -0.457093       -12.4381
  32   1.0000      -0.453764       -12.3475
  33   1.0000      -0.448778       -12.2119
  34   1.0000      -0.448426       -12.2023
  35   1.0000      -0.431461       -11.7407
  36   1.0000      -0.410438       -11.1686
  37   1.0000      -0.385455       -10.4888
  38   1.0000      -0.382826       -10.4172
  39   1.0000      -0.376997       -10.2586
  40   1.0000      -0.371344       -10.1048
  41   1.0000      -0.363995        -9.9048
  42   1.0000      -0.315577        -8.5873
  43   1.0000      -0.309700        -8.4274
  44   1.0000      -0.289783        -7.8854
  45   1.0000      -0.289623        -7.8811
  46   1.0000      -0.254947        -6.9375
  47   0.0000      -0.100110        -2.7241
  48   0.0000      -0.040488        -1.1017
  49   0.0000      -0.038725        -1.0538
  50   0.0000      -0.038094        -1.0366
  51   0.0000      -0.009890        -0.2691

                 SPIN DOWN ORBITALS
  NO   OCC          E(Eh)            E(eV)
   0   1.0000     -10.244655      -278.7712
   1   1.0000     -10.244645      -278.7710
   2   1.0000     -10.239368      -278.6274
   3   1.0000     -10.237474      -278.5758
   4   1.0000     -10.216994      -278.0185
   5   1.0000     -10.216986      -278.0183
   6   1.0000     -10.216682      -278.0100
   7   1.0000     -10.216664      -278.0096
   8   1.0000     -10.216660      -278.0094
   9   1.0000     -10.216656      -278.0094
  10   1.0000     -10.204249      -277.6717
  11   1.0000     -10.204242      -277.6715
  12   1.0000     -10.204238      -277.6714
  13   1.0000     -10.204231      -277.6712
  14   1.0000      -0.896385       -24.3919
  15   1.0000      -0.891168       -24.2499
  16   1.0000      -0.829611       -22.5749
  17   1.0000      -0.798288       -21.7225
  18   1.0000      -0.778034       -21.1714
  19   1.0000      -0.777847       -21.1663
  20   1.0000      -0.746529       -20.3141
  21   1.0000      -0.668793       -18.1988
  22   1.0000      -0.639977       -17.4147
  23   1.0000      -0.632346       -17.2070
  24   1.0000      -0.630516       -17.1572
  25   1.0000      -0.570876       -15.5343
  26   1.0000      -0.556401       -15.1404
  27   1.0000      -0.508421       -13.8348
  28   1.0000      -0.500222       -13.6117
  29   1.0000      -0.490965       -13.3598
  30   1.0000      -0.485135       -13.2012
  31   1.0000      -0.455631       -12.3984
  32   1.0000      -0.452229       -12.3058
  33   1.0000      -0.448380       -12.2010
  34   1.0000      -0.448056       -12.1922
  35   1.0000      -0.416711       -11.3393
  36   1.0000      -0.399577       -10.8730
  37   1.0000      -0.384300       -10.4573
  38   1.0000      -0.381834       -10.3902
  39   1.0000      -0.375758       -10.2249
  40   1.0000      -0.370294       -10.0762
  41   1.0000      -0.343913        -9.3583
  42   1.0000      -0.311909        -8.4875
  43   1.0000      -0.291254        -7.9254
  44   1.0000      -0.285672        -7.7735
  45   1.0000      -0.285585        -7.7712
  46   0.0000      -0.197995        -5.3877
  47   0.0000      -0.083841        -2.2814
  48   0.0000      -0.034577        -0.9409
  49   0.0000      -0.032623        -0.8877
  50   0.0000      -0.024515        -0.6671

MULLIKEN ATOMIC CHARGES AND SPIN POPULATIONS
--------------------------------------------
   0 C :   -0.760794   -0.049272
   1 C :    0.122888    0.196757
   2 C :   -0.799361   -0.049319
   3 C :   -0.933866    0.088731
   4 C :    1.810275    0.064224
   5 C :   -0.978468    0.089068
   6 H :   -0.472960   -0.006668
   7 C :    1.304728    0.176266
   8 C :    1.248064    0.175563
   9 C :    1.848087    0.062384
  10 C :   -0.955966    0.089403
  11 C :   -0.872152   -0.047493
  12 C :    0.113856    0.195765
  13 C :   -0.839507   -0.048260
  14 C :   -0.972121    0.089548
  15 H :   -0.516258   -0.006123
  16 H :    0.614882    0.001706
  17 H :    0.631066   -0.007287
  18 H :    0.651531    0.002277
  19 H :   -0.501644   -0.007306
  20 H :   -0.290802   -0.008541
  21 H :    0.510531    0.000937
  22 H :    0.461343   -0.003104
  23 H :    0.576648    0.000746
Sum of atomic charges         :    1.0000000

LOEWDIN ATOMIC CHARGES AND SPIN POPULATIONS
-------------------------------------------
   0 C :    0.239786    0.022608
   1 C :    0.250123    0.093605
   2 C :    0.239786    0.022610
   3 C :    0.241349    0.053898
   4 C :   -0.159235    0.078589
   5 C :    0.241343    0.053898
   6 H :   -0.141753    0.008925
   7 C :    0.175467    0.141566
   8 C :    0.175475    0.141575
   9 C :   -0.159266    0.078577
  10 C :    0.241328    0.053892
  11 C :    0.239752    0.022607
  12 C :    0.250112    0.093594
  13 C :    0.239766    0.022606
  14 C :    0.241324    0.053894
  15 H :   -0.141761    0.008924
  16 H :   -0.151260   -0.003206
  17 H :   -0.142511    0.021802
  18 H :   -0.151243   -0.003206
  19 H :   -0.141759    0.008924
  20 H :   -0.141701    0.008924
  21 H :   -0.151291   -0.003206
  22 H :   -0.142555    0.021805
  23 H :   -0.151279   -0.003207

  Mayer bond orders larger than 0.100000
B(  0-C ,  1-C ) :   1.1234 B(  0-C ,  2-C ) :   0.4107 B(  0-C ,  3-C ) :   0.1420
B(  0-C ,  4-C ) :   0.3006 B(  0-C ,  5-C ) :   1.2352 B(  0-C ,  7-C ) :   0.1971
B(  0-C ,  8-C ) :  -0.4442 B(  0-C , 16-H ) :  -0.1090 B(  0-C , 20-H ) :  -0.1113
B(  0-C , 22-H ) :  -0.1207 B(  0-C , 23-H ) :   0.3475 B(  1-C ,  2-C ) :   1.0608
B(  1-C ,  3-C ) :  -0.4731 B(  1-C ,  4-C ) :  -0.3406 B(  1-C ,  5-C ) :  -0.5098
B(  1-C ,  6-H ) :  -0.2525 B(  1-C ,  8-C ) :   0.9322 B(  1-C ,  9-C ) :  -0.1036
B(  1-C , 11-C ) :   0.1166 B(  1-C , 12-C ) :   0.1608 B(  1-C , 15-H ) :  -0.1286
B(  1-C , 19-H ) :  -0.1086 B(  1-C , 20-H ) :  -0.1989 B(  1-C , 21-H ) :   0.1314
B(  1-C , 22-H ) :   0.6723 B(  1-C , 23-H ) :   0.1670 B(  2-C ,  3-C ) :   1.2638
B(  2-C ,  4-C ) :   0.3009 B(  2-C ,  5-C ) :   0.2465 B(  2-C ,  7-C ) :   0.2861
B(  2-C ,  8-C ) :  -0.6183 B(  2-C , 13-C ) :   0.1705 B(  2-C , 21-H ) :   0.4482
B(  2-C , 22-H ) :  -0.1069 B(  3-C ,  5-C ) :  -0.9024 B(  3-C ,  6-H ) :   0.3918
B(  3-C ,  7-C ) :   0.1751 B(  3-C ,  9-C ) :   0.2554 B(  3-C , 10-C ) :   0.1355
B(  3-C , 13-C ) :  -0.1190 B(  3-C , 20-H ) :   2.3313 B(  3-C , 21-H ) :  -0.2085
B(  4-C ,  5-C ) :  -0.1598 B(  4-C ,  6-H ) :  -0.1495 B(  4-C ,  8-C ) :   0.3912
B(  4-C ,  9-C ) :   0.4081 B(  4-C , 10-C ) :   0.1865 B(  4-C , 11-C ) :  -0.1406
B(  4-C , 12-C ) :  -0.1198 B(  4-C , 14-C ) :   0.1762 B(  4-C , 15-H ) :  -0.2778
B(  4-C , 16-H ) :   0.1954 B(  4-C , 18-H ) :   0.1929 B(  4-C , 19-H ) :  -0.2475
B(  4-C , 21-H ) :   0.1532 B(  4-C , 22-H ) :  -0.1250 B(  4-C , 23-H ) :   0.1798
B(  5-C ,  6-H ) :   2.7738 B(  5-C ,  7-C ) :   0.2376 B(  5-C ,  9-C ) :   0.2053
B(  5-C , 11-C ) :  -0.1497 B(  5-C , 14-C ) :   0.1823 B(  5-C , 16-H ) :  -0.1194
B(  5-C , 17-H ) :   0.1739 B(  5-C , 20-H ) :   0.3290 B(  5-C , 23-H ) :  -0.3114
B(  6-H ,  7-C ) :  -0.2591 B(  6-H ,  8-C ) :  -1.1835 B(  6-H ,  9-C ) :  -0.2797
B(  6-H , 13-C ) :   0.1946 B(  6-H , 15-H ) :   0.1030 B(  6-H , 17-H ) :  -0.2641
B(  6-H , 18-H ) :  -0.1172 B(  6-H , 19-H ) :   0.1959 B(  6-H , 20-H ) :   0.7316
B(  6-H , 21-H ) :  -0.1566 B(  7-C ,  8-C ) :   4.8285 B(  7-C ,  9-C ) :   0.4541
B(  7-C , 11-C ) :  -0.7274 B(  7-C , 12-C ) :   0.7892 B(  7-C , 13-C ) :  -0.7434
B(  7-C , 15-H ) :  -1.3217 B(  7-C , 17-H ) :   1.0654 B(  7-C , 18-H ) :   0.1563
B(  7-C , 19-H ) :  -1.2960 B(  7-C , 20-H ) :  -0.5051 B(  7-C , 21-H ) :   0.4279
B(  7-C , 22-H ) :  -0.3264 B(  7-C , 23-H ) :   0.2538 B(  8-C , 10-C ) :   0.1481
B(  8-C , 11-C ) :   0.4363 B(  8-C , 13-C ) :   0.4406 B(  8-C , 14-C ) :   0.1675
B(  8-C , 15-H ) :  -0.1774 B(  8-C , 16-H ) :   0.2480 B(  8-C , 17-H ) :  -0.6787
B(  8-C , 18-H ) :   0.1999 B(  8-C , 19-H ) :  -0.2110 B(  8-C , 20-H ) :  -0.6364
B(  8-C , 21-H ) :  -0.2972 B(  8-C , 22-H ) :   0.5608 B(  9-C , 11-C ) :   0.3283
B(  9-C , 12-C ) :  -0.2961 B(  9-C , 13-C ) :   0.3258 B(  9-C , 14-C ) :  -0.1322
B(  9-C , 15-H ) :  -0.2153 B(  9-C , 16-H ) :   0.1817 B(  9-C , 17-H ) :  -0.1256
B(  9-C , 18-H ) :   0.1589 B(  9-C , 19-H ) :  -0.2062 B(  9-C , 22-H ) :  -0.1527
B(  9-C , 23-H ) :   0.1475 B( 10-C , 11-C ) :   1.3126 B( 10-C , 12-C ) :  -0.5007
B( 10-C , 13-C ) :   0.1746 B( 10-C , 14-C ) :  -0.9561 B( 10-C , 15-H ) :   0.4173
B( 10-C , 18-H ) :  -0.2673 B( 10-C , 19-H ) :   2.7458 B( 10-C , 21-H ) :  -0.1095
B( 10-C , 22-H ) :   0.1254 B( 11-C , 12-C ) :   1.1620 B( 11-C , 13-C ) :   0.5211
B( 11-C , 14-C ) :   0.1913 B( 11-C , 18-H ) :   0.1461 B( 11-C , 21-H ) :  -0.1539
B( 11-C , 23-H ) :   0.1711 B( 12-C , 13-C ) :   1.1455 B( 12-C , 14-C ) :  -0.5387
B( 12-C , 15-H ) :  -0.1792 B( 12-C , 16-H ) :   0.2235 B( 12-C , 17-H ) :   0.4945
B( 12-C , 18-H ) :   0.2336 B( 12-C , 19-H ) :  -0.1737 B( 13-C , 14-C ) :   1.2796
B( 13-C , 16-H ) :   0.1845 B( 13-C , 21-H ) :   0.1428 B( 13-C , 22-H ) :  -0.1295
B( 13-C , 23-H ) :  -0.2433 B( 14-C , 15-H ) :   2.8385 B( 14-C , 16-H ) :  -0.2933
B( 14-C , 19-H ) :   0.4451 B( 14-C , 22-H ) :   0.1035 B( 14-C , 23-H ) :  -0.1359
B( 15-H , 16-H ) :  -0.1288 B( 15-H , 17-H ) :  -0.2028 B( 15-H , 18-H ) :  -0.2643
B( 15-H , 19-H ) :   0.9591 B( 16-H , 19-H ) :  -0.2356 B( 17-H , 19-H ) :  -0.1846
B( 18-H , 19-H ) :  -0.1610 B( 20-H , 23-H ) :  -0.1603

Dispersion correction           -0.047407449
FINAL SINGLE POINT ENERGY      -539.160880409554

DIPOLE MOMENT
-------------

Method             : SCF
Type of density    : Electron Density
Multiplicity       :   2
Irrep              :   0
Energy             :  -539.1134729602050584 Eh
Relativity type    :
Basis              : AO
                                X                 Y                 Z
Electronic contribution:      0.000388974      -0.000210080      -0.000140689
Nuclear contribution   :      0.000010392       0.000370111       0.000152227
                        -----------------------------------------
Total Dipole Moment    :      0.000399366       0.000160031       0.000011538
                        -----------------------------------------
Magnitude (a.u.)       :      0.000430391
Magnitude (Debye)      :      0.001093967

Rotational constants in cm-1:             0.092188             0.008430             0.007724
Rotational constants in MHz :          2763.733748           252.731480           231.556631

                             ****ORCA TERMINATED NORMALLY****
TOTAL RUN TIME: 0 days 0 hours 11 minutes 48 seconds 367 msec
