                         Program Version 6.0.0  -   RELEASE  -
|  1> !TPSSh freq aug-cc-pVTZ d3 TightSCF SlowConv RIJCOSX defgrid2
|  2>
|  3> %pal
|  4> nprocs 12
|  5> end
|  6>
|  7> %scf
|  8> MaxIter 1500
|  9> end
| 10>
| 11> %maxcore 5000
| 12>
| 13> !CPCM
| 14> %cpcm smd true
| 15> SMDsolvent "MeCN"
| 16> surfacetype gepol_ses
| 17> rsolv 2.19
| 18> end
| 19>
| 20> * xyz -1 2
| 21> C          -1.17449966180305     -1.25608868510173     -0.00053354398372
| 22> C          -2.51891347605699     -0.94667411458234     -0.00051019892946
| 23> C          -2.96144926680440      0.38700932160767     -0.00011843417921
| 24> C          -1.99601773698497      1.40951771734641      0.00026791256151
| 25> C          -0.64474772143817      1.12791457262188      0.00033615608291
| 26> C          -0.17518421629485     -0.22208248641669     -0.00000661686596
| 27> C           1.17123391996943     -0.63293962875611      0.00025652346168
| 28> O           1.70697289820611     -1.73347223553314     -0.00023347944738
| 29> Cl          2.42606264036599      0.87048280043614      0.00084672177802
| 30> H           0.07468989418801      1.93507272026595      0.00088458548582
| 31> H          -2.31463755850995      2.44687727423468      0.00100366754779
| 32> H          -4.01879834619240      0.62104045166209      0.00011656972902
| 33> H          -3.24436968884642     -1.75395268010719     -0.00084969999416
| 34> H          -0.85101897979833     -2.28969502767763     -0.00091466324687
| 35> *
| 36>
| 37>                          ****END OF INPUT****

CARTESIAN COORDINATES (ANGSTROEM)
---------------------------------
  C     -1.174500   -1.256089   -0.000534
  C     -2.518913   -0.946674   -0.000510
  C     -2.961449    0.387009   -0.000118
  C     -1.996018    1.409518    0.000268
  C     -0.644748    1.127915    0.000336
  C     -0.175184   -0.222082   -0.000007
  C      1.171234   -0.632940    0.000257
  O      1.706973   -1.733472   -0.000233
  Cl     2.426063    0.870483    0.000847
  H      0.074690    1.935073    0.000885
  H     -2.314638    2.446877    0.001004
  H     -4.018798    0.621040    0.000117
  H     -3.244370   -1.753953   -0.000850
  H     -0.851019   -2.289695   -0.000915

 Total Charge           Charge          ....   -1
 Multiplicity           Mult            ....    2
 Number of Electrons    NEL             ....   73
 Basis Dimension        Dim             ....  533

ORBITAL ENERGIES
----------------
                 SPIN UP ORBITALS
  NO   OCC          E(Eh)            E(eV)
   0   1.0000    -101.354319     -2757.9912
   1   1.0000     -19.021286      -517.5955
   2   1.0000     -10.185015      -277.1484
   3   1.0000     -10.107526      -275.0398
   4   1.0000     -10.098722      -274.8002
   5   1.0000     -10.097939      -274.7789
   6   1.0000     -10.097464      -274.7660
   7   1.0000     -10.096536      -274.7407
   8   1.0000     -10.091237      -274.5965
   9   1.0000      -9.333230      -253.9701
  10   1.0000      -7.080268      -192.6639
  11   1.0000      -7.074342      -192.5026
  12   1.0000      -7.073791      -192.4876
  13   1.0000      -0.992856       -27.0170
  14   1.0000      -0.817050       -22.2330
  15   1.0000      -0.758661       -20.6442
  16   1.0000      -0.718009       -19.5380
  17   1.0000      -0.710108       -19.3230
  18   1.0000      -0.608246       -16.5512
  19   1.0000      -0.564777       -15.3684
  20   1.0000      -0.516312       -14.0496
  21   1.0000      -0.467302       -12.7159
  22   1.0000      -0.426247       -11.5988
  23   1.0000      -0.418782       -11.3956
  24   1.0000      -0.394962       -10.7475
  25   1.0000      -0.386121       -10.5069
  26   1.0000      -0.385420       -10.4878
  27   1.0000      -0.369929       -10.0663
  28   1.0000      -0.334020        -9.0891
  29   1.0000      -0.325330        -8.8527
  30   1.0000      -0.300684        -8.1820
  31   1.0000      -0.270415        -7.3584
  32   1.0000      -0.268180        -7.2975
  33   1.0000      -0.239366        -6.5135
  34   1.0000      -0.238185        -6.4813
  35   1.0000      -0.235973        -6.4212
  36   1.0000      -0.102453        -2.7879
  37   0.0000      -0.010045        -0.2734
  38   0.0000      -0.005914        -0.1609
  39   0.0000       0.009217         0.2508
  40   0.0000       0.015016         0.4086
  41   0.0000       0.019823         0.5394

                 SPIN DOWN ORBITALS
  NO   OCC          E(Eh)            E(eV)
   0   1.0000    -101.354309     -2757.9910
   1   1.0000     -19.015846      -517.4475
   2   1.0000     -10.179649      -277.0023
   3   1.0000     -10.107283      -275.0331
   4   1.0000     -10.100116      -274.8381
   5   1.0000     -10.099240      -274.8143
   6   1.0000     -10.094447      -274.6839
   7   1.0000     -10.093679      -274.6630
   8   1.0000     -10.086690      -274.4728
   9   1.0000      -9.333218      -253.9698
  10   1.0000      -7.080472      -192.6694
  11   1.0000      -7.074085      -192.4956
  12   1.0000      -7.073795      -192.4877
  13   1.0000      -0.983595       -26.7650
  14   1.0000      -0.813147       -22.1269
  15   1.0000      -0.756117       -20.5750
  16   1.0000      -0.713357       -19.4114
  17   1.0000      -0.706942       -19.2369
  18   1.0000      -0.597288       -16.2530
  19   1.0000      -0.563410       -15.3312
  20   1.0000      -0.512592       -13.9483
  21   1.0000      -0.462768       -12.5926
  22   1.0000      -0.423365       -11.5203
  23   1.0000      -0.415009       -11.2930
  24   1.0000      -0.393336       -10.7032
  25   1.0000      -0.384731       -10.4691
  26   1.0000      -0.367001        -9.9866
  27   1.0000      -0.361710        -9.8426
  28   1.0000      -0.323481        -8.8024
  29   1.0000      -0.318878        -8.6771
  30   1.0000      -0.299869        -8.1599
  31   1.0000      -0.267709        -7.2847
  32   1.0000      -0.264564        -7.1991
  33   1.0000      -0.233635        -6.3575
  34   1.0000      -0.229272        -6.2388
  35   1.0000      -0.219896        -5.9837
  36   0.0000      -0.047135        -1.2826
  37   0.0000      -0.004302        -0.1171
  38   0.0000      -0.003104        -0.0845
  39   0.0000       0.011940         0.3249
  40   0.0000       0.016650         0.4531

MULLIKEN ATOMIC CHARGES AND SPIN POPULATIONS
--------------------------------------------
   0 C :   -0.734358    0.235733
   1 C :   -0.256276   -0.099635
   2 C :   -0.315854    0.302223
   3 C :   -0.470180   -0.094758
   4 C :   -0.858430    0.226640
   5 C :    1.263165    0.017537
   6 C :    0.580486    0.252965
   7 O :   -0.872863    0.198199
   8 Cl:   -0.566630    0.003094
   9 H :    0.242761   -0.002480
  10 H :    0.335955   -0.012253
  11 H :    0.331707    0.003634
  12 H :    0.352095   -0.013007
  13 H :   -0.031578   -0.017891
Sum of atomic charges         :   -1.0000000

LOEWDIN ATOMIC CHARGES AND SPIN POPULATIONS
-------------------------------------------
   0 C :    0.143356    0.097885
   1 C :    0.142912    0.029449
   2 C :    0.154011    0.134610
   3 C :    0.141022    0.030470
   4 C :    0.104511    0.094501
   5 C :   -0.329751    0.115323
   6 C :   -1.088004    0.215658
   7 O :    0.291980    0.190993
   8 Cl:    0.531777    0.024459
   9 H :   -0.283076    0.019861
  10 H :   -0.195092   -0.005165
  11 H :   -0.209017    0.035954
  12 H :   -0.194058   -0.005750
  13 H :   -0.210572    0.021752

  Mayer bond orders larger than 0.100000
B(  0-C ,  1-C ) :   1.4123 B(  0-C ,  2-C ) :   0.1050 B(  0-C ,  5-C ) :   0.4576
B(  0-C ,  6-C ) :   0.1813 B(  0-C , 13-H ) :   1.0219 B(  1-C ,  2-C ) :   1.2022
B(  1-C , 12-H ) :   0.7297 B(  2-C ,  3-C ) :   1.2065 B(  2-C ,  5-C ) :  -0.1374
B(  2-C ,  6-C ) :   0.1104 B(  2-C , 11-H ) :   0.7088 B(  3-C ,  4-C ) :   1.4503
B(  3-C , 10-H ) :   0.7331 B(  4-C ,  5-C ) :   0.2919 B(  4-C ,  6-C ) :   0.2887
B(  4-C ,  9-H ) :   1.1354 B(  4-C , 13-H ) :   0.1084 B(  5-C ,  6-C ) :   0.8290
B(  5-C ,  7-O ) :   0.3092 B(  6-C ,  7-O ) :   0.5710 B(  6-C ,  8-Cl) :   0.6016
B(  7-O ,  8-Cl) :   0.1028 B(  7-O , 13-H ) :   0.1832 B(  8-Cl,  9-H ) :  -0.1746

Dispersion correction           -0.018877207
FINAL SINGLE POINT ENERGY      -805.496165205491

DIPOLE MOMENT
-------------

Method             : SCF
Type of density    : Electron Density
Multiplicity       :   2
Irrep              :   0
Energy             :  -805.4772879981428559 Eh
Relativity type    :
Basis              : AO
                                X                 Y                 Z
Electronic contribution:     10.949673936       1.005328637       0.001667370
Nuclear contribution   :    -13.021556089      -0.353619909      -0.001460456
                        -----------------------------------------
Total Dipole Moment    :     -2.071882153       0.651708728       0.000206914
                        -----------------------------------------
Magnitude (a.u.)       :      2.171962238
Magnitude (Debye)      :      5.520689273

VIBRATIONAL FREQUENCIES
-----------------------

Scaling factor for frequencies =  1.000000000  (already applied!)

     0:       0.00 cm**-1
     1:       0.00 cm**-1
     2:       0.00 cm**-1
     3:       0.00 cm**-1
     4:       0.00 cm**-1
     5:       0.00 cm**-1
     6:      80.12 cm**-1
     7:     134.91 cm**-1
     8:     170.03 cm**-1
     9:     244.62 cm**-1
    10:     326.72 cm**-1
    11:     335.61 cm**-1
    12:     425.82 cm**-1
    13:     465.68 cm**-1
    14:     471.02 cm**-1
    15:     591.20 cm**-1
    16:     614.56 cm**-1
    17:     673.29 cm**-1
    18:     701.81 cm**-1
    19:     799.70 cm**-1
    20:     804.86 cm**-1
    21:     819.47 cm**-1
    22:     968.70 cm**-1
    23:     972.15 cm**-1
    24:     980.86 cm**-1
    25:    1009.76 cm**-1
    26:    1087.43 cm**-1
    27:    1142.17 cm**-1
    28:    1165.79 cm**-1
    29:    1221.98 cm**-1
    30:    1303.36 cm**-1
    31:    1351.85 cm**-1
    32:    1440.41 cm**-1
    33:    1479.20 cm**-1
    34:    1522.82 cm**-1
    35:    1592.39 cm**-1
    36:    1721.76 cm**-1
    37:    3143.91 cm**-1
    38:    3147.77 cm**-1
    39:    3174.94 cm**-1
    40:    3181.25 cm**-1
    41:    3195.97 cm**-1

IR SPECTRUM
-----------

 Mode   freq       eps      Int      T**2         TX        TY        TZ
       cm**-1   L/(mol*cm) km/mol    a.u.
----------------------------------------------------------------------------
  6:     80.12   0.000043    0.22  0.000167  (-0.000126 -0.000305 -0.012933)
  7:    134.91   0.000080    0.40  0.000185  (-0.000349 -0.000494  0.013591)
  8:    170.03   0.001576    7.96  0.002892  ( 0.038255  0.037801  0.000059)
  9:    244.62   0.028638  144.73  0.036533  ( 0.138528  0.131694  0.000224)
 10:    326.72   0.000058    0.29  0.000055  (-0.000350  0.000145 -0.007433)
 11:    335.61   0.003478   17.57  0.003233  ( 0.026584  0.050267 -0.000092)
 12:    425.82   0.000073    0.37  0.000054  (-0.000074  0.000002  0.007328)
 13:    465.68   0.005977   30.21  0.004005  (-0.000763 -0.000117  0.063283)
 14:    471.02   0.007013   35.44  0.004646  (-0.065208 -0.019849 -0.000331)
 15:    591.20   0.052653  266.08  0.027793  ( 0.127715  0.107152  0.000069)
 16:    614.56   0.001945    9.83  0.000987  ( 0.027227  0.015689 -0.000212)
 17:    673.29   0.017177   86.81  0.007961  ( 0.000027  0.000113 -0.089227)
 18:    701.81   0.019844  100.28  0.008824  ( 0.000099 -0.000096  0.093936)
 19:    799.70   0.032910  166.31  0.012842  (-0.067458 -0.091058 -0.000044)
 20:    804.86   0.000122    0.62  0.000047  ( 0.000650  0.000833  0.006797)
 21:    819.47   0.003416   17.26  0.001301  ( 0.000100 -0.000028 -0.036065)
 22:    968.70   0.000000    0.00  0.000000  ( 0.000038  0.000109 -0.000162)
 23:    972.15   0.000003    0.01  0.000001  (-0.000409  0.000579  0.000638)
 24:    980.86   0.006331   32.00  0.002014  ( 0.034368 -0.028864  0.000055)
 25:   1009.76   0.017012   85.97  0.005258  (-0.069398  0.021015  0.000061)
 26:   1087.43   0.002197   11.10  0.000630  ( 0.018931 -0.016495  0.000021)
 27:   1142.17   0.001696    8.57  0.000463  ( 0.007416 -0.020209  0.000026)
 28:   1165.79   0.012677   64.06  0.003393  ( 0.029031 -0.050503 -0.000009)
 29:   1221.98   0.025985  131.32  0.006636  (-0.013771 -0.080289 -0.000023)
 30:   1303.36   0.003408   17.22  0.000816  ( 0.027553  0.007533 -0.000024)
 31:   1351.85   0.008188   41.38  0.001890  (-0.018243 -0.039464 -0.000061)
 32:   1440.41   0.002971   15.01  0.000644  (-0.017422  0.018441  0.000022)
 33:   1479.20   0.011726   59.26  0.002474  (-0.037084  0.033145  0.000010)
 34:   1522.82   0.003148   15.91  0.000645  (-0.012318  0.022211 -0.000025)
 35:   1592.39   0.070944  358.52  0.013903  (-0.106729  0.050120  0.000038)
 36:   1721.76   0.181486  917.16  0.032894  (-0.122805  0.133464  0.000012)
 37:   3143.91   0.002415   12.20  0.000240  (-0.015339 -0.002099 -0.000023)
 38:   3147.77   0.008878   44.87  0.000880  ( 0.003133  0.029501 -0.000075)
 39:   3174.94   0.006993   35.34  0.000687  ( 0.011633 -0.023495  0.000034)
 40:   3181.25   0.008364   42.27  0.000820  ( 0.025870  0.012299  0.000026)
 41:   3195.97   0.002133   10.78  0.000208  (-0.000679  0.014416 -0.000002)

--------------------------
THERMOCHEMISTRY AT 298.15K
--------------------------

Temperature         ...   298.15 K
Pressure            ...     1.00 atm
Total Mass          ...   140.57 AMU
Quasi RRHO          ...     True
Cut-Off Frequency   ...     1.00 cm^-1

Throughout the following assumptions are being made:
  (1) The electronic state is orbitally nondegenerate
      but the spin degeneracy is treated
  (2) There are no thermally accessible electronically excited states
  (3) Hindered rotations indicated by low frequency modes are not
      treated as such but are treated as vibrations and this may
      cause some error
  (4) All equations used are the standard statistical mechanics
      equations for an ideal gas
  (5) All vibrations are strictly harmonic

freq.      80.12  E(vib)   ...       0.49
freq.     134.91  E(vib)   ...       0.42
freq.     170.03  E(vib)   ...       0.38
freq.     244.62  E(vib)   ...       0.31
freq.     326.72  E(vib)   ...       0.24
freq.     335.61  E(vib)   ...       0.24
freq.     425.82  E(vib)   ...       0.18
freq.     465.68  E(vib)   ...       0.16
freq.     471.02  E(vib)   ...       0.15
freq.     591.20  E(vib)   ...       0.10
freq.     614.56  E(vib)   ...       0.10
freq.     673.29  E(vib)   ...       0.08
freq.     701.81  E(vib)   ...       0.07
freq.     799.70  E(vib)   ...       0.05
freq.     804.86  E(vib)   ...       0.05
freq.     819.47  E(vib)   ...       0.05
freq.     968.70  E(vib)   ...       0.03
freq.     972.15  E(vib)   ...       0.03
freq.     980.86  E(vib)   ...       0.02
freq.    1009.76  E(vib)   ...       0.02
freq.    1087.43  E(vib)   ...       0.02
freq.    1142.17  E(vib)   ...       0.01
freq.    1165.79  E(vib)   ...       0.01
freq.    1221.98  E(vib)   ...       0.01
freq.    1303.36  E(vib)   ...       0.01
freq.    1351.85  E(vib)   ...       0.01
freq.    1440.41  E(vib)   ...       0.00
freq.    1479.20  E(vib)   ...       0.00
freq.    1522.82  E(vib)   ...       0.00
freq.    1592.39  E(vib)   ...       0.00
freq.    1721.76  E(vib)   ...       0.00
freq.    3143.91  E(vib)   ...       0.00
freq.    3147.77  E(vib)   ...       0.00
freq.    3174.94  E(vib)   ...       0.00
freq.    3181.25  E(vib)   ...       0.00
freq.    3195.97  E(vib)   ...       0.00

------------
INNER ENERGY
------------

The inner energy is: U= E(el) + E(ZPE) + E(vib) + E(rot) + E(trans)
    E(el)   - is the total energy from the electronic structure calculation
              = E(kin-el) + E(nuc-el) + E(el-el) + E(nuc-nuc)
    E(ZPE)  - the the zero temperature vibrational energy from the frequency calculation
    E(vib)  - the the finite temperature correction to E(ZPE) due to population
              of excited vibrational states
    E(rot)  - is the rotational thermal energy
    E(trans)- is the translational thermal energy

Summary of contributions to the inner energy U:
Electronic energy                ...   -805.49616521 Eh
Zero point energy                ...      0.09673979 Eh      60.71 kcal/mol
Thermal vibrational correction   ...      0.00515684 Eh       3.24 kcal/mol
Thermal rotational correction    ...      0.00141627 Eh       0.89 kcal/mol
Thermal translational correction ...      0.00141627 Eh       0.89 kcal/mol
-----------------------------------------------------------------------
Total thermal energy                   -805.39143603 Eh

Summary of corrections to the electronic energy:
(perhaps to be used in another calculation)
Total thermal correction                  0.00798938 Eh       5.01 kcal/mol
Non-thermal (ZPE) correction              0.09673979 Eh      60.71 kcal/mol
-----------------------------------------------------------------------
Total correction                          0.10472918 Eh      65.72 kcal/mol

--------
ENTHALPY
--------

The enthalpy is H = U + kB*T
                kB is Boltzmann's constant
Total thermal energy              ...   -805.39143603 Eh
Thermal Enthalpy correction       ...      0.00094421 Eh       0.59 kcal/mol
-----------------------------------------------------------------------
Total Enthalpy                    ...   -805.39049182 Eh

Note: Only C1 symmetry has been detected, increase convergence thresholds
      if your molecule has a higher symmetry. Symmetry factor of 1.0 is
      used for the rotational entropy correction.

Note: Rotational entropy computed according to Herzberg
Infrared and Raman Spectra, Chapter V,1, Van Nostrand Reinhold, 1945
Point Group:  C1, Symmetry Number:   1
Rotational constants in cm-1:     0.099547     0.030306     0.023233

Vibrational entropy computed according to the QRRHO of S. Grimme
Chem.Eur.J. 2012 18 9955 using a reference frequency of 100.0 cm-1

-------
ENTROPY
-------

The entropy contributions are T*S = T*(S(el)+S(vib)+S(rot)+S(trans))
     S(el)   - electronic entropy
     S(vib)  - vibrational entropy
     S(rot)  - rotational entropy
     S(trans)- translational entropy
The entropies will be listed as multiplied by the temperature to get
units of energy

Electronic entropy                ...      0.00065446 Eh      0.41 kcal/mol
Vibrational entropy               ...      0.00856808 Eh      5.38 kcal/mol
Rotational entropy                ...      0.01402669 Eh      8.80 kcal/mol
Translational entropy             ...      0.01935352 Eh     12.14 kcal/mol
-----------------------------------------------------------------------
Final entropy term                ...      0.04260275 Eh     26.73 kcal/mol

In case the symmetry of your molecule has not been determined correctly
or in case you have a reason to use a different symmetry number we print
out the resulting rotational entropy values for sn=1,12:

 non-linear molecules -----------------------------------
|  sn= 1 | S(rot)=       0.01402669 Eh      8.80 kcal/mol|
|  sn= 2 | S(rot)=       0.01337223 Eh      8.39 kcal/mol|
|  sn= 3 | S(rot)=       0.01298940 Eh      8.15 kcal/mol|
|  sn= 4 | S(rot)=       0.01271777 Eh      7.98 kcal/mol|
|  sn= 5 | S(rot)=       0.01250709 Eh      7.85 kcal/mol|
|  sn= 6 | S(rot)=       0.01233494 Eh      7.74 kcal/mol|
|  sn= 7 | S(rot)=       0.01218940 Eh      7.65 kcal/mol|
|  sn= 8 | S(rot)=       0.01206332 Eh      7.57 kcal/mol|
|  sn= 9 | S(rot)=       0.01195211 Eh      7.50 kcal/mol|
|  sn=10 | S(rot)=       0.01185263 Eh      7.44 kcal/mol|
|  sn=11 | S(rot)=       0.01176264 Eh      7.38 kcal/mol|
|  sn=12 | S(rot)=       0.01168049 Eh      7.33 kcal/mol|
 linear molecules ---------------------------------------
|  Dinfh | S(rot)=       0.00887798 Eh      5.57 kcal/mol|
|  Cinfv | S(rot)=       0.00953244 Eh      5.98 kcal/mol|
 --------------------------------------------------------

-------------------
GIBBS FREE ENERGY
-------------------

The Gibbs free energy is G = H - T*S

                             ****ORCA TERMINATED NORMALLY****
TOTAL RUN TIME: 0 days 0 hours 38 minutes 30 seconds 638 msec
