                         Program Version 6.0.0  -   RELEASE  -
|  1> !r2SCAN aug-cc-pVTZ d3 TightSCF SlowConv RIJCOSX defgrid2
|  2>
|  3> %pal
|  4> nprocs 4
|  5> end
|  6>
|  7> %scf
|  8> MaxIter 1500
|  9> end
| 10>
| 11> %maxcore 3000
| 12>
| 13> !CPCM
| 14> %cpcm smd true
| 15> SMDsolvent "MeCN"
| 16> surfacetype gepol_ses
| 17> rsolv 2.19
| 18> end
| 19>
| 20> * xyz 0 1
| 21> C          -1.46623314437860      0.00011003866901      0.22138384864377
| 22> C          -0.72146821550608     -1.25556136021306     -0.22481675803302
| 23> C           0.73262554024155     -1.20678755712777      0.22695422389648
| 24> N           1.36188913054653     -0.00003006922571     -0.26913603967446
| 25> H           2.35649748423742      0.00003991081311     -0.05534562705397
| 26> C           0.73253990701766      1.20675926009467      0.22704999760922
| 27> C          -0.72144308108941      1.25558522950449     -0.22511308939031
| 28> H          -1.21016137962431      2.16287914838208      0.17240179576001
| 29> H          -0.74244280115887      1.32521043142589     -1.32823766113094
| 30> H           1.28241123896761      2.08000889090111     -0.16483545442717
| 31> H           0.76101367989671      1.27620173910910      1.34294202221842
| 32> H           1.28219641826463     -2.08008378359356     -0.16534993713385
| 33> H           0.76183907670503     -1.27697357186768      1.34279799676324
| 34> H          -1.21020710908673     -2.16266625677100      0.17304098184531
| 35> H          -0.74264320710994     -1.32505523098441     -1.32794132635220
| 36> H          -2.49942641463124      0.00003764837706     -0.16886144147242
| 37> H          -1.54597222329197      0.00034473250668      1.32642866793188
| 38> *
| 39>
| 40>                          ****END OF INPUT****

CARTESIAN COORDINATES (ANGSTROEM)
---------------------------------
  C     -1.466233    0.000110    0.221384
  C     -0.721468   -1.255561   -0.224817
  C      0.732626   -1.206788    0.226954
  N      1.361889   -0.000030   -0.269136
  H      2.356497    0.000040   -0.055346
  C      0.732540    1.206759    0.227050
  C     -0.721443    1.255585   -0.225113
  H     -1.210161    2.162879    0.172402
  H     -0.742443    1.325210   -1.328238
  H      1.282411    2.080009   -0.164835
  H      0.761014    1.276202    1.342942
  H      1.282196   -2.080084   -0.165350
  H      0.761839   -1.276974    1.342798
  H     -1.210207   -2.162666    0.173041
  H     -0.742643   -1.325055   -1.327941
  H     -2.499426    0.000038   -0.168861
  H     -1.545972    0.000345    1.326429

 Total Charge           Charge          ....    0
 Multiplicity           Mult            ....    1
 Number of Electrons    NEL             ....   48
 Basis Dimension        Dim             ....  529

ORBITAL ENERGIES
----------------

  NO   OCC          E(Eh)            E(eV)
   0   2.0000     -14.142017      -384.8239
   1   2.0000     -10.046860      -273.3890
   2   2.0000     -10.046856      -273.3888
   3   2.0000     -10.022200      -272.7179
   4   2.0000     -10.020889      -272.6822
   5   2.0000     -10.020879      -272.6820
   6   2.0000      -0.872356       -23.7380
   7   2.0000      -0.743599       -20.2344
   8   2.0000      -0.709096       -19.2955
   9   2.0000      -0.592151       -16.1133
  10   2.0000      -0.576931       -15.6991
  11   2.0000      -0.507535       -13.8107
  12   2.0000      -0.472697       -12.8627
  13   2.0000      -0.411585       -11.1998
  14   2.0000      -0.410210       -11.1624
  15   2.0000      -0.382590       -10.4108
  16   2.0000      -0.370001       -10.0682
  17   2.0000      -0.364180        -9.9098
  18   2.0000      -0.343013        -9.3339
  19   2.0000      -0.304210        -8.2780
  20   2.0000      -0.286909        -7.8072
  21   2.0000      -0.274574        -7.4715
  22   2.0000      -0.272244        -7.4081
  23   2.0000      -0.192748        -5.2449
  24   0.0000       0.010724         0.2918
  25   0.0000       0.023688         0.6446
  26   0.0000       0.027489         0.7480
  27   0.0000       0.029571         0.8047
  28   0.0000       0.048801         1.3280

MULLIKEN ATOMIC CHARGES
-----------------------
   0 C :   -0.168646
   1 C :   -0.268291
   2 C :   -0.260029
   3 N :   -0.272952
   4 H :   -0.059064
   5 C :   -0.260207
   6 C :   -0.268382
   7 H :    0.202396
   8 H :    0.061416
   9 H :    0.265387
  10 H :    0.116224
  11 H :    0.265349
  12 H :    0.116179
  13 H :    0.202433
  14 H :    0.061341
  15 H :    0.168393
  16 H :    0.098454
Sum of atomic charges:    0.0000000

LOEWDIN ATOMIC CHARGES
----------------------
   0 C :    0.264167
   1 C :    0.263869
   2 C :    0.138365
   3 N :    0.551612
   4 H :   -0.286715
   5 C :    0.138484
   6 C :    0.263797
   7 H :   -0.133222
   8 H :   -0.138288
   9 H :   -0.135292
  10 H :   -0.125441
  11 H :   -0.135301
  12 H :   -0.125402
  13 H :   -0.133227
  14 H :   -0.138302
  15 H :   -0.133963
  16 H :   -0.135142

  Mayer bond orders larger than 0.100000
B(  0-C ,  1-C ) :   0.8828 B(  0-C ,  6-C ) :   0.8828 B(  0-C , 15-H ) :   0.9780
B(  0-C , 16-H ) :   1.0057 B(  1-C ,  2-C ) :   0.8980 B(  1-C ,  6-C ) :   0.1135
B(  1-C , 13-H ) :   0.9253 B(  1-C , 14-H ) :   1.0648 B(  2-C ,  3-N ) :   0.8756
B(  2-C , 11-H ) :   0.9145 B(  2-C , 12-H ) :   0.9936 B(  3-N ,  4-H ) :   1.0427
B(  3-N ,  5-C ) :   0.8758 B(  5-C ,  6-C ) :   0.8981 B(  5-C ,  9-H ) :   0.9145
B(  5-C , 10-H ) :   0.9937 B(  6-C ,  7-H ) :   0.9252 B(  6-C ,  8-H ) :   1.0647

Dispersion correction           -0.004135124
FINAL SINGLE POINT ENERGY      -251.852181514438

DIPOLE MOMENT
-------------

Method             : SCF
Type of density    : Electron Density
Multiplicity       :   1
Irrep              :   0
Energy             :  -251.8480463906022635 Eh
Relativity type    :
Basis              : AO
                                X                 Y                 Z
Electronic contribution:      1.563443302       0.000231692      -0.589364127
Nuclear contribution   :     -1.432111276      -0.000148884       1.063195941
                        -----------------------------------------
Total Dipole Moment    :      0.131332026       0.000082808       0.473831814
                        -----------------------------------------
Magnitude (a.u.)       :      0.491695735
Magnitude (Debye)      :      1.249791236

Rotational constants in cm-1:             0.151873             0.148898             0.085191
Rotational constants in MHz :          4553.029667          4463.848294          2553.974723

                             ****ORCA TERMINATED NORMALLY****
TOTAL RUN TIME: 0 days 0 hours 1 minutes 53 seconds 830 msec
