                         Program Version 6.0.0  -   RELEASE  -
|  1> !PBE0 def2-SV(p) Opt Freq d3 TightSCF SlowConv RIJCOSX defgrid2
|  2>
|  3> %pal
|  4> nprocs 4
|  5> end
|  6>
|  7> %scf
|  8> MaxIter 1500
|  9> end
| 10>
| 11> %maxcore 3000
| 12>
| 13>
| 14>
| 15> * xyz 0 1
| 16> C     1.5199385   -1.2003783    0.0000210
| 17> C     2.2134015    0.0000238   -0.0000236
| 18> C     1.5198559    1.2003710    0.0000120
| 19> C     0.1376210    1.2059471    0.0000661
| 20> C    -0.5640038   -0.0000724    0.0000935
| 21> C     0.1377039   -1.2060556    0.0000733
| 22> H    -0.4085889   -2.1382052    0.0000597
| 23> C    -1.9813795   -0.0000443   -0.0001453
| 24> C    -3.1822312    0.0010073   -0.0004086
| 25> H    -4.2313833   -0.0005170    0.0006598
| 26> H    -0.4087240    2.1380662    0.0000422
| 27> H     2.0597699    2.1360951   -0.0000396
| 28> H     3.2934127    0.0000675   -0.0001043
| 29> H     2.0599411   -2.1360524   -0.0000230
| 30> *
| 31>
| 32>                          ****END OF INPUT****
 Total Charge           Charge          ....    0
 Multiplicity           Mult            ....    1
 Number of Electrons    NEL             ....   54
Dispersion correction           -0.012401373
FINAL SINGLE POINT ENERGY      -307.795089029703
Dispersion correction             ... done (  0.0 sec)
Dispersion correction           -0.012326902
FINAL SINGLE POINT ENERGY      -307.797191937529
Dispersion correction             ... done (  0.0 sec)
Dispersion correction           -0.012319445
FINAL SINGLE POINT ENERGY      -307.797211975977
Dispersion correction             ... done (  0.0 sec)
                    ***********************HURRAY********************

CARTESIAN COORDINATES (ANGSTROEM)
---------------------------------
  C      1.532727   -1.207347    0.000011
  C      2.232057    0.000034    0.000021
  C      1.532617    1.207353    0.000003
  C      0.141283    1.211459   -0.000036
  C     -0.570832   -0.000096   -0.000052
  C      0.141389   -1.211583   -0.000025
  H     -0.410931   -2.154644   -0.000043
  C     -2.000375   -0.000105   -0.000099
  C     -3.213718    0.000860   -0.000228
  H     -4.288959   -0.000289    0.000718
  H     -0.411130    2.154465   -0.000061
  H      2.077476    2.156009    0.000011
  H      3.326048    0.000083    0.000038
  H      2.077682   -2.155947    0.000025

 Multiplicity           Mult            ....    1
 Number of Electrons    NEL             ....   54
 Basis Dimension        Dim             ....  124

ORBITAL ENERGIES
----------------

  NO   OCC          E(Eh)            E(eV)
   0   2.0000     -10.268216      -279.4124
   1   2.0000     -10.247781      -278.8563
   2   2.0000     -10.247777      -278.8562
   3   2.0000     -10.246233      -278.8142
   4   2.0000     -10.245294      -278.7886
   5   2.0000     -10.245207      -278.7863
   6   2.0000     -10.242936      -278.7244
   7   2.0000     -10.234801      -278.5031
   8   2.0000      -0.889512       -24.2048
   9   2.0000      -0.803760       -21.8714
  10   2.0000      -0.771938       -21.0055
  11   2.0000      -0.743246       -20.2247
  12   2.0000      -0.644176       -17.5289
  13   2.0000      -0.629388       -17.1265
  14   2.0000      -0.568473       -15.4689
  15   2.0000      -0.531631       -14.4664
  16   2.0000      -0.493274       -13.4227
  17   2.0000      -0.482132       -13.1195
  18   2.0000      -0.454521       -12.3682
  19   2.0000      -0.444335       -12.0910
  20   2.0000      -0.403845       -10.9892
  21   2.0000      -0.378440       -10.2979
  22   2.0000      -0.369288       -10.0488
  23   2.0000      -0.328632        -8.9425
  24   2.0000      -0.293679        -7.9914
  25   2.0000      -0.276657        -7.5282
  26   2.0000      -0.251392        -6.8407
  27   0.0000      -0.035595        -0.9686
  28   0.0000      -0.010841        -0.2950
  29   0.0000       0.050476         1.3735
  30   0.0000       0.068572         1.8659
  31   0.0000       0.088189         2.3997

MULLIKEN ATOMIC CHARGES
-----------------------
   0 C :   -0.093722
   1 C :   -0.089461
   2 C :   -0.093741
   3 C :   -0.090542
   4 C :   -0.018778
   5 C :   -0.090567
   6 H :    0.099557
   7 C :    0.365504
   8 C :   -0.520539
   9 H :    0.123405
  10 H :    0.099568
  11 H :    0.103073
  12 H :    0.103175
  13 H :    0.103070
Sum of atomic charges:   -0.0000000

LOEWDIN ATOMIC CHARGES
----------------------
   0 C :   -0.125183
   1 C :   -0.121813
   2 C :   -0.125182
   3 C :   -0.101002
   4 C :   -0.056828
   5 C :   -0.101021
   6 H :    0.137539
   7 C :   -0.015598
   8 C :   -0.182947
   9 H :    0.157700
  10 H :    0.137547
  11 H :    0.132536
  12 H :    0.131719
  13 H :    0.132535

  Mayer bond orders larger than 0.100000
B(  0-C ,  1-C ) :   1.3881 B(  0-C ,  5-C ) :   1.3919 B(  0-C , 13-H ) :   0.9616
B(  1-C ,  2-C ) :   1.3880 B(  1-C , 12-H ) :   0.9630 B(  2-C ,  3-C ) :   1.3919
B(  2-C , 11-H ) :   0.9616 B(  3-C ,  4-C ) :   1.3638 B(  3-C , 10-H ) :   0.9636
B(  4-C ,  5-C ) :   1.3637 B(  4-C ,  7-C ) :   1.0050 B(  5-C ,  6-H ) :   0.9636
B(  7-C ,  8-C ) :   2.4423 B(  8-C ,  9-H ) :   1.0301

Dispersion correction           -0.012318359
FINAL SINGLE POINT ENERGY      -307.797213413331

DIPOLE MOMENT
-------------

Method             : SCF
Type of density    : Electron Density
Multiplicity       :   1
Irrep              :   0
Energy             :  -307.7848950540148962 Eh
Relativity type    :
Basis              : AO
                                X                 Y                 Z
Electronic contribution:     -1.975296452       0.000250899      -0.000502808
Nuclear contribution   :      2.227582411      -0.000665596       0.000875711
                        -----------------------------------------
Total Dipole Moment    :      0.252285958      -0.000414697       0.000372902
                        -----------------------------------------
Magnitude (a.u.)       :      0.252286575
Magnitude (Debye)      :      0.641261511

VIBRATIONAL FREQUENCIES
-----------------------

Scaling factor for frequencies =  1.000000000  (already applied!)

     0:       0.00 cm**-1
     1:       0.00 cm**-1
     2:       0.00 cm**-1
     3:       0.00 cm**-1
     4:       0.00 cm**-1
     5:       0.00 cm**-1
     6:     143.51 cm**-1
     7:     158.89 cm**-1
     8:     374.75 cm**-1
     9:     414.94 cm**-1
    10:     472.02 cm**-1
    11:     540.18 cm**-1
    12:     565.60 cm**-1
    13:     633.30 cm**-1
    14:     664.12 cm**-1
    15:     704.22 cm**-1
    16:     717.22 cm**-1
    17:     782.99 cm**-1
    18:     789.37 cm**-1
    19:     865.17 cm**-1
    20:     950.15 cm**-1
    21:    1001.25 cm**-1
    22:    1018.52 cm**-1
    23:    1025.67 cm**-1
    24:    1062.01 cm**-1
    25:    1107.04 cm**-1
    26:    1174.46 cm**-1
    27:    1193.16 cm**-1
    28:    1246.93 cm**-1
    29:    1332.36 cm**-1
    30:    1393.03 cm**-1
    31:    1490.74 cm**-1
    32:    1540.61 cm**-1
    33:    1659.42 cm**-1
    34:    1692.11 cm**-1
    35:    2236.17 cm**-1
    36:    3196.34 cm**-1
    37:    3205.78 cm**-1
    38:    3215.95 cm**-1
    39:    3223.87 cm**-1
    40:    3227.33 cm**-1
    41:    3480.14 cm**-1

IR SPECTRUM
-----------

 Mode   freq       eps      Int      T**2         TX        TY        TZ
       cm**-1   L/(mol*cm) km/mol    a.u.
----------------------------------------------------------------------------
  6:    143.51   0.000358    1.81  0.000779  ( 0.000010  0.000000  0.027916)
  7:    158.89   0.000242    1.23  0.000476  (-0.000007  0.021822 -0.000000)
  8:    374.75   0.000706    3.57  0.000588  (-0.000005  0.000000 -0.024240)
  9:    414.94   0.000000    0.00  0.000000  (-0.000000 -0.000007  0.000008)
 10:    472.02   0.000076    0.38  0.000050  ( 0.007068 -0.000012  0.000011)
 11:    540.18   0.000906    4.58  0.000523  (-0.000050  0.022878 -0.000000)
 12:    565.60   0.000640    3.23  0.000353  ( 0.000000  0.000000 -0.018793)
 13:    633.30   0.000083    0.42  0.000041  (-0.000029  0.006386 -0.000000)
 14:    664.12   0.008096   40.91  0.003804  (-0.000202  0.000000 -0.061678)
 15:    704.22   0.006738   34.05  0.002986  ( 0.000173 -0.054644 -0.000001)
 16:    717.22   0.006680   33.76  0.002907  ( 0.000010  0.000000 -0.053912)
 17:    782.99   0.000511    2.58  0.000204  ( 0.014267 -0.000041 -0.000017)
 18:    789.37   0.006524   32.97  0.002579  ( 0.000007  0.000000  0.050785)
 19:    865.17   0.000000    0.00  0.000000  ( 0.000000 -0.000000 -0.000002)
 20:    950.15   0.000699    3.53  0.000229  (-0.000003 -0.000000  0.015148)
 21:   1001.25   0.000000    0.00  0.000000  ( 0.000000 -0.000000 -0.000000)
 22:   1018.52   0.000068    0.34  0.000021  (-0.004555  0.000001 -0.000000)
 23:   1025.67   0.000014    0.07  0.000004  ( 0.000002  0.000000 -0.002040)
 24:   1062.01   0.000833    4.21  0.000245  ( 0.015645 -0.000002  0.000002)
 25:   1107.04   0.001198    6.05  0.000338  (-0.000006  0.018374 -0.000000)
 26:   1174.46   0.000004    0.02  0.000001  ( 0.000000  0.001016  0.000000)
 27:   1193.16   0.000009    0.05  0.000002  (-0.001572 -0.000002  0.000001)
 28:   1246.93   0.000081    0.41  0.000020  ( 0.004501 -0.000008  0.000007)
 29:   1332.36   0.000004    0.02  0.000001  (-0.000006 -0.000919 -0.000000)
 30:   1393.03   0.000060    0.30  0.000013  ( 0.000004 -0.003669 -0.000000)
 31:   1490.74   0.001291    6.52  0.000270  ( 0.000004  0.016438 -0.000000)
 32:   1540.61   0.003303   16.69  0.000669  ( 0.025865  0.000001  0.000002)
 33:   1659.42   0.000206    1.04  0.000039  (-0.000010  0.006226  0.000000)
 34:   1692.11   0.000305    1.54  0.000056  (-0.007503  0.000003 -0.000001)
 35:   2236.17   0.000601    3.04  0.000084  ( 0.009158 -0.000016  0.000013)
 36:   3196.34   0.000055    0.28  0.000005  (-0.002313 -0.000004 -0.000000)
 37:   3205.78   0.000657    3.32  0.000064  (-0.000001  0.007996  0.000000)
 38:   3215.95   0.001946    9.83  0.000189  ( 0.013740  0.000010  0.000000)
 39:   3223.87   0.001928    9.75  0.000187  ( 0.000012 -0.013662  0.000000)
 40:   3227.33   0.000574    2.90  0.000055  ( 0.007449  0.000007  0.000001)
 41:   3480.14   0.017775   89.83  0.001594  ( 0.039923  0.000037 -0.000030)

--------------------------
THERMOCHEMISTRY AT 298.15K
--------------------------

Temperature         ...   298.15 K
Pressure            ...     1.00 atm
Total Mass          ...   102.14 AMU
Quasi RRHO          ...     True
Cut-Off Frequency   ...     1.00 cm^-1

Throughout the following assumptions are being made:
  (1) The electronic state is orbitally nondegenerate
  (2) There are no thermally accessible electronically excited states
  (3) Hindered rotations indicated by low frequency modes are not
      treated as such but are treated as vibrations and this may
      cause some error
  (4) All equations used are the standard statistical mechanics
      equations for an ideal gas
  (5) All vibrations are strictly harmonic

freq.     143.51  E(vib)   ...       0.41
freq.     158.89  E(vib)   ...       0.39
freq.     374.75  E(vib)   ...       0.21
freq.     414.94  E(vib)   ...       0.19
freq.     472.02  E(vib)   ...       0.15
freq.     540.18  E(vib)   ...       0.12
freq.     565.60  E(vib)   ...       0.11
freq.     633.30  E(vib)   ...       0.09
freq.     664.12  E(vib)   ...       0.08
freq.     704.22  E(vib)   ...       0.07
freq.     717.22  E(vib)   ...       0.07
freq.     782.99  E(vib)   ...       0.05
freq.     789.37  E(vib)   ...       0.05
freq.     865.17  E(vib)   ...       0.04
freq.     950.15  E(vib)   ...       0.03
freq.    1001.25  E(vib)   ...       0.02
freq.    1018.52  E(vib)   ...       0.02
freq.    1025.67  E(vib)   ...       0.02
freq.    1062.01  E(vib)   ...       0.02
freq.    1107.04  E(vib)   ...       0.02
freq.    1174.46  E(vib)   ...       0.01
freq.    1193.16  E(vib)   ...       0.01
freq.    1246.93  E(vib)   ...       0.01
freq.    1332.36  E(vib)   ...       0.01
freq.    1393.03  E(vib)   ...       0.00
freq.    1490.74  E(vib)   ...       0.00
freq.    1540.61  E(vib)   ...       0.00
freq.    1659.42  E(vib)   ...       0.00
freq.    1692.11  E(vib)   ...       0.00
freq.    2236.17  E(vib)   ...       0.00
freq.    3196.34  E(vib)   ...       0.00
freq.    3205.78  E(vib)   ...       0.00
freq.    3215.95  E(vib)   ...       0.00
freq.    3223.87  E(vib)   ...       0.00
freq.    3227.33  E(vib)   ...       0.00
freq.    3480.14  E(vib)   ...       0.00

------------
INNER ENERGY
------------

The inner energy is: U= E(el) + E(ZPE) + E(vib) + E(rot) + E(trans)
    E(el)   - is the total energy from the electronic structure calculation
              = E(kin-el) + E(nuc-el) + E(el-el) + E(nuc-nuc)
    E(ZPE)  - the the zero temperature vibrational energy from the frequency calculation
    E(vib)  - the the finite temperature correction to E(ZPE) due to population
              of excited vibrational states
    E(rot)  - is the rotational thermal energy
    E(trans)- is the translational thermal energy

Summary of contributions to the inner energy U:
Electronic energy                ...   -307.79721341 Eh
Zero point energy                ...      0.11048958 Eh      69.33 kcal/mol
Thermal vibrational correction   ...      0.00353171 Eh       2.22 kcal/mol
Thermal rotational correction    ...      0.00141627 Eh       0.89 kcal/mol
Thermal translational correction ...      0.00141627 Eh       0.89 kcal/mol
-----------------------------------------------------------------------
Total thermal energy                   -307.68035957 Eh

Summary of corrections to the electronic energy:
(perhaps to be used in another calculation)
Total thermal correction                  0.00636426 Eh       3.99 kcal/mol
Non-thermal (ZPE) correction              0.11048958 Eh      69.33 kcal/mol
-----------------------------------------------------------------------
Total correction                          0.11685384 Eh      73.33 kcal/mol

--------
ENTHALPY
--------

The enthalpy is H = U + kB*T
                kB is Boltzmann's constant
Total thermal energy              ...   -307.68035957 Eh
Thermal Enthalpy correction       ...      0.00094421 Eh       0.59 kcal/mol
-----------------------------------------------------------------------
Total Enthalpy                    ...   -307.67941536 Eh

Note: Only C1 symmetry has been detected, increase convergence thresholds
      if your molecule has a higher symmetry. Symmetry factor of 1.0 is
      used for the rotational entropy correction.

Note: Rotational entropy computed according to Herzberg
Infrared and Raman Spectra, Chapter V,1, Van Nostrand Reinhold, 1945
Point Group:  C1, Symmetry Number:   1
Rotational constants in cm-1:     0.189401     0.050851     0.040088

Vibrational entropy computed according to the QRRHO of S. Grimme
Chem.Eur.J. 2012 18 9955 using a reference frequency of 100.0 cm-1

-------
ENTROPY
-------

The entropy contributions are T*S = T*(S(el)+S(vib)+S(rot)+S(trans))
     S(el)   - electronic entropy
     S(vib)  - vibrational entropy
     S(rot)  - rotational entropy
     S(trans)- translational entropy
The entropies will be listed as multiplied by the temperature to get
units of energy

Electronic entropy                ...      0.00000000 Eh      0.00 kcal/mol
Vibrational entropy               ...      0.00554887 Eh      3.48 kcal/mol
Rotational entropy                ...      0.01322117 Eh      8.30 kcal/mol
Translational entropy             ...      0.01890118 Eh     11.86 kcal/mol
-----------------------------------------------------------------------
Final entropy term                ...      0.03767121 Eh     23.64 kcal/mol

In case the symmetry of your molecule has not been determined correctly
or in case you have a reason to use a different symmetry number we print
out the resulting rotational entropy values for sn=1,12:

 non-linear molecules -----------------------------------
|  sn= 1 | S(rot)=       0.01322117 Eh      8.30 kcal/mol|
|  sn= 2 | S(rot)=       0.01256671 Eh      7.89 kcal/mol|
|  sn= 3 | S(rot)=       0.01218388 Eh      7.65 kcal/mol|
|  sn= 4 | S(rot)=       0.01191226 Eh      7.48 kcal/mol|
|  sn= 5 | S(rot)=       0.01170157 Eh      7.34 kcal/mol|
|  sn= 6 | S(rot)=       0.01152942 Eh      7.23 kcal/mol|
|  sn= 7 | S(rot)=       0.01138388 Eh      7.14 kcal/mol|
|  sn= 8 | S(rot)=       0.01125780 Eh      7.06 kcal/mol|
|  sn= 9 | S(rot)=       0.01114659 Eh      6.99 kcal/mol|
|  sn=10 | S(rot)=       0.01104711 Eh      6.93 kcal/mol|
|  sn=11 | S(rot)=       0.01095712 Eh      6.88 kcal/mol|
|  sn=12 | S(rot)=       0.01087497 Eh      6.82 kcal/mol|
 linear molecules ---------------------------------------
|  Dinfh | S(rot)=       0.00836293 Eh      5.25 kcal/mol|
|  Cinfv | S(rot)=       0.00901739 Eh      5.66 kcal/mol|
 --------------------------------------------------------

-------------------
GIBBS FREE ENERGY
-------------------

The Gibbs free energy is G = H - T*S

                             ****ORCA TERMINATED NORMALLY****
TOTAL RUN TIME: 0 days 0 hours 4 minutes 25 seconds 462 msec
