                         Program Version 6.0.0  -   RELEASE  -
|  1> !r2SCAN freq aug-cc-pVTZ d3 TightSCF SlowConv RIJCOSX defgrid2
|  2>
|  3> %pal
|  4> nprocs 12
|  5> end
|  6>
|  7> %scf
|  8> MaxIter 1500
|  9> end
| 10>
| 11> %maxcore 5000
| 12>
| 13> !CPCM
| 14> %cpcm smd true
| 15> SMDsolvent "MeCN"
| 16> surfacetype gepol_ses
| 17> rsolv 2.19
| 18> end
| 19>
| 20> * xyz 0 1
| 21> C           0.89805336470850     -1.41640414907893     -0.00038270506386
| 22> C           2.11452061206699     -0.74140151159776      0.00002143987095
| 23> C           2.17100194602060      0.66030732953327     -0.00009100750177
| 24> C           1.01741514549130      1.43220609505413     -0.00047107503782
| 25> C          -0.21833885476312      0.77674320515364     -0.00069700867953
| 26> C          -0.23746065702079     -0.62757679094430     -0.00077045997366
| 27> O          -1.52808851607429     -1.08088579356515     -0.00055551301961
| 28> C          -2.32268681056702      0.03945278973536     -0.00007510637798
| 29> C          -1.59751360336188      1.18055165633165     -0.00026717547291
| 30> H          -1.99219829633393      2.18427694823291      0.00096412728800
| 31> H          -3.38342325673274     -0.15196787059169      0.00116628563916
| 32> H           1.07299290501852      2.51446159108434     -0.00047267947262
| 33> H           3.13877670906324      1.14779728325903      0.00059885320385
| 34> H           3.03603415782170     -1.31099496860176      0.00116660149356
| 35> H           0.83996525466295     -2.49758951400472     -0.00004977689578
| 36> *
| 37>
| 38>                          ****END OF INPUT****

CARTESIAN COORDINATES (ANGSTROEM)
---------------------------------
  C      0.898053   -1.416404   -0.000383
  C      2.114521   -0.741402    0.000021
  C      2.171002    0.660307   -0.000091
  C      1.017415    1.432206   -0.000471
  C     -0.218339    0.776743   -0.000697
  C     -0.237461   -0.627577   -0.000770
  O     -1.528089   -1.080886   -0.000556
  C     -2.322687    0.039453   -0.000075
  C     -1.597514    1.180552   -0.000267
  H     -1.992198    2.184277    0.000964
  H     -3.383423   -0.151968    0.001166
  H      1.072993    2.514462   -0.000473
  H      3.138777    1.147797    0.000599
  H      3.036034   -1.310995    0.001167
  H      0.839965   -2.497590   -0.000050

 Total Charge           Charge          ....    0
 Multiplicity           Mult            ....    1
 Number of Electrons    NEL             ....   62
 Basis Dimension        Dim             ....  552

ORBITAL ENERGIES
----------------

  NO   OCC          E(Eh)            E(eV)
   0   2.0000     -19.025872      -517.7203
   1   2.0000     -10.094402      -274.6826
   2   2.0000     -10.092804      -274.6392
   3   2.0000     -10.049057      -273.4488
   4   2.0000     -10.044240      -273.3177
   5   2.0000     -10.042469      -273.2695
   6   2.0000     -10.040563      -273.2176
   7   2.0000     -10.038719      -273.1674
   8   2.0000     -10.037034      -273.1216
   9   2.0000      -1.076454       -29.2918
  10   2.0000      -0.827119       -22.5071
  11   2.0000      -0.769135       -20.9292
  12   2.0000      -0.718803       -19.5596
  13   2.0000      -0.698593       -19.0097
  14   2.0000      -0.601783       -16.3753
  15   2.0000      -0.569658       -15.5012
  16   2.0000      -0.553830       -15.0705
  17   2.0000      -0.488557       -13.2943
  18   2.0000      -0.462681       -12.5902
  19   2.0000      -0.447091       -12.1660
  20   2.0000      -0.431159       -11.7324
  21   2.0000      -0.408162       -11.1066
  22   2.0000      -0.392234       -10.6732
  23   2.0000      -0.374316       -10.1857
  24   2.0000      -0.356039        -9.6883
  25   2.0000      -0.334186        -9.0937
  26   2.0000      -0.332989        -9.0611
  27   2.0000      -0.308416        -8.3924
  28   2.0000      -0.279489        -7.6053
  29   2.0000      -0.228044        -6.2054
  30   2.0000      -0.210441        -5.7264
  31   0.0000      -0.052428        -1.4266
  32   0.0000      -0.023001        -0.6259
  33   0.0000       0.008960         0.2438
  34   0.0000       0.014768         0.4019
  35   0.0000       0.022045         0.5999

MULLIKEN ATOMIC CHARGES
-----------------------
   0 C :   -1.065152
   1 C :   -0.173937
   2 C :   -0.564245
   3 C :   -0.600155
   4 C :    1.134843
   5 C :    0.332250
   6 O :   -0.519544
   7 C :   -0.545817
   8 C :   -0.649481
   9 H :    0.379649
  10 H :    0.624640
  11 H :    0.084669
  12 H :    0.600160
  13 H :    0.362500
  14 H :    0.599618
Sum of atomic charges:    0.0000000

LOEWDIN ATOMIC CHARGES
----------------------
   0 C :    0.223837
   1 C :    0.181729
   2 C :    0.182541
   3 C :    0.219876
   4 C :   -0.168977
   5 C :   -0.399974
   6 O :    0.615577
   7 C :   -0.002759
   8 C :    0.223987
   9 H :   -0.176970
  10 H :   -0.182906
  11 H :   -0.173162
  12 H :   -0.185943
  13 H :   -0.184124
  14 H :   -0.172732

  Mayer bond orders larger than 0.100000
B(  0-C ,  1-C ) :   1.2027 B(  0-C ,  2-C ) :   0.4702 B(  0-C ,  4-C ) :   0.1473
B(  0-C ,  5-C ) :   1.1318 B(  0-C ,  6-O ) :   0.1000 B(  1-C ,  2-C ) :   1.0324
B(  1-C ,  3-C ) :  -0.4370 B(  1-C ,  5-C ) :  -0.7329 B(  1-C ,  7-C ) :   0.1142
B(  1-C , 12-H ) :   0.1479 B(  1-C , 13-H ) :   0.7794 B(  1-C , 14-H ) :   0.1845
B(  2-C ,  3-C ) :   0.9400 B(  2-C ,  5-C ) :   0.1101 B(  2-C ,  8-C ) :   0.2248
B(  2-C , 12-H ) :   0.2951 B(  2-C , 13-H ) :  -0.1298 B(  3-C ,  4-C ) :   0.7126
B(  3-C ,  5-C ) :  -0.8196 B(  3-C ,  8-C ) :   0.1098 B(  3-C ,  9-H ) :   0.1829
B(  3-C , 11-H ) :   1.3891 B(  3-C , 12-H ) :  -0.1065 B(  3-C , 14-H ) :   0.1388
B(  4-C ,  5-C ) :   1.2264 B(  4-C ,  6-O ) :  -0.1058 B(  4-C ,  7-C ) :  -0.3304
B(  4-C ,  8-C ) :   0.3638 B(  4-C , 11-H ) :  -0.1690 B(  4-C , 13-H ) :  -0.1516
B(  5-C ,  6-O ) :   0.5386 B(  5-C ,  8-C ) :   0.2582 B(  5-C , 11-H ) :   0.1967
B(  5-C , 13-H ) :   0.1514 B(  6-O ,  7-C ) :   1.1743 B(  7-C ,  8-C ) :   1.1198
B(  7-C , 10-H ) :   0.4528 B(  8-C ,  9-H ) :   0.8406

Dispersion correction           -0.004589320
FINAL SINGLE POINT ENERGY      -383.614796546545

DIPOLE MOMENT
-------------

Method             : SCF
Type of density    : Electron Density
Multiplicity       :   1
Irrep              :   0
Energy             :  -383.6102072268069492 Eh
Relativity type    :
Basis              : AO
                                X                 Y                 Z
Electronic contribution:     -2.704777059      -1.404253776      -0.002581005
Nuclear contribution   :      2.512035460       1.740554731       0.004987098
                        -----------------------------------------
Total Dipole Moment    :     -0.192741599       0.336300955       0.002406093
                        -----------------------------------------
Magnitude (a.u.)       :      0.387625393
Magnitude (Debye)      :      0.985265450

VIBRATIONAL FREQUENCIES
-----------------------

Scaling factor for frequencies =  1.000000000  (already applied!)

     0:       0.00 cm**-1
     1:       0.00 cm**-1
     2:       0.00 cm**-1
     3:       0.00 cm**-1
     4:       0.00 cm**-1
     5:       0.00 cm**-1
     6:     213.62 cm**-1
     7:     249.71 cm**-1
     8:     406.24 cm**-1
     9:     425.06 cm**-1
    10:     546.50 cm**-1
    11:     585.36 cm**-1
    12:     598.36 cm**-1
    13:     620.60 cm**-1
    14:     742.29 cm**-1
    15:     753.76 cm**-1
    16:     776.32 cm**-1
    17:     782.77 cm**-1
    18:     862.40 cm**-1
    19:     869.84 cm**-1
    20:     870.15 cm**-1
    21:     910.63 cm**-1
    22:     944.70 cm**-1
    23:     988.65 cm**-1
    24:    1025.44 cm**-1
    25:    1040.00 cm**-1
    26:    1116.38 cm**-1
    27:    1135.12 cm**-1
    28:    1156.42 cm**-1
    29:    1180.42 cm**-1
    30:    1266.90 cm**-1
    31:    1284.32 cm**-1
    32:    1356.54 cm**-1
    33:    1406.46 cm**-1
    34:    1468.55 cm**-1
    35:    1495.89 cm**-1
    36:    1560.82 cm**-1
    37:    1617.57 cm**-1
    38:    1645.56 cm**-1
    39:    3163.51 cm**-1
    40:    3174.82 cm**-1
    41:    3183.51 cm**-1
    42:    3193.39 cm**-1
    43:    3239.46 cm**-1
    44:    3266.75 cm**-1

IR SPECTRUM
-----------

 Mode   freq       eps      Int      T**2         TX        TY        TZ
       cm**-1   L/(mol*cm) km/mol    a.u.
----------------------------------------------------------------------------
  6:    213.62   0.002481   12.54  0.003625  (-0.000112 -0.000007  0.060207)
  7:    249.71   0.000067    0.34  0.000084  ( 0.000021 -0.000061  0.009179)
  8:    406.24   0.002295   11.60  0.001763  (-0.021238 -0.036220 -0.000021)
  9:    425.06   0.003391   17.14  0.002490  ( 0.000101 -0.000002 -0.049897)
 10:    546.50   0.000210    1.06  0.000120  ( 0.009634  0.005198  0.000089)
 11:    585.36   0.000048    0.24  0.000026  ( 0.000113  0.000017 -0.005081)
 12:    598.36   0.000000    0.00  0.000000  ( 0.000161  0.000101 -0.000344)
 13:    620.60   0.000558    2.82  0.000281  ( 0.016129 -0.004515 -0.000023)
 14:    742.29   0.001574    7.95  0.000662  ( 0.000085  0.000071  0.025723)
 15:    753.76   0.046104  232.99  0.019087  ( 0.000240 -0.000064 -0.138157)
 16:    776.32   0.002718   13.73  0.001092  ( 0.030287 -0.013217  0.000643)
 17:    782.77   0.002952   14.92  0.001177  ( 0.000007  0.000002  0.034304)
 18:    862.40   0.000031    0.16  0.000011  ( 0.000255  0.000252 -0.003320)
 19:    869.84   0.001041    5.26  0.000373  (-0.007376 -0.011483  0.013679)
 20:    870.15   0.003105   15.69  0.001114  ( 0.017958  0.027565  0.005604)
 21:    910.63   0.001121    5.67  0.000384  (-0.011997  0.015500  0.000007)
 22:    944.70   0.001021    5.16  0.000337  ( 0.000152 -0.000135 -0.018367)
 23:    988.65   0.000004    0.02  0.000001  ( 0.000014  0.000237 -0.001114)
 24:   1025.44   0.003994   20.18  0.001215  (-0.033528  0.009554 -0.000151)
 25:   1040.00   0.007702   38.92  0.002311  (-0.004238 -0.047885 -0.000007)
 26:   1116.38   0.006598   33.34  0.001844  (-0.014845 -0.040297  0.000071)
 27:   1135.12   0.006977   35.26  0.001918  (-0.022429  0.037618 -0.000059)
 28:   1156.42   0.001201    6.07  0.000324  (-0.012734  0.012725 -0.000017)
 29:   1180.42   0.008713   44.03  0.002303  ( 0.045030 -0.016604 -0.000038)
 30:   1266.90   0.014247   72.00  0.003509  (-0.059240 -0.000136 -0.000010)
 31:   1284.32   0.000236    1.19  0.000057  ( 0.007552 -0.000546  0.000040)
 32:   1356.54   0.002680   13.54  0.000616  (-0.015482 -0.019411  0.000004)
 33:   1406.46   0.000412    2.08  0.000091  ( 0.008910 -0.003471 -0.000002)
 34:   1468.55   0.012785   64.61  0.002717  (-0.046500 -0.023549  0.000010)
 35:   1495.89   0.001664    8.41  0.000347  ( 0.013060 -0.013290  0.000016)
 36:   1560.82   0.006022   30.43  0.001204  (-0.001270 -0.034675  0.000066)
 37:   1617.57   0.000161    0.81  0.000031  (-0.003952  0.003935  0.000014)
 38:   1645.56   0.000009    0.05  0.000002  (-0.001267  0.000435 -0.000007)
 39:   3163.51   0.000543    2.75  0.000054  (-0.007254 -0.000994  0.000000)
 40:   3174.82   0.002976   15.04  0.000292  (-0.008800  0.014665  0.000059)
 41:   3183.51   0.006093   30.79  0.000597  ( 0.016663  0.017878 -0.000024)
 42:   3193.39   0.002297   11.61  0.000224  (-0.012360  0.008470  0.000053)
 43:   3239.46   0.000605    3.06  0.000058  ( 0.007633  0.000099  0.000056)
 44:   3266.75   0.000009    0.04  0.000001  (-0.000043 -0.000904  0.000084)

--------------------------
THERMOCHEMISTRY AT 298.15K
--------------------------

Temperature         ...   298.15 K
Pressure            ...     1.00 atm
Total Mass          ...   118.13 AMU
Quasi RRHO          ...     True
Cut-Off Frequency   ...     1.00 cm^-1

Throughout the following assumptions are being made:
  (1) The electronic state is orbitally nondegenerate
  (2) There are no thermally accessible electronically excited states
  (3) Hindered rotations indicated by low frequency modes are not
      treated as such but are treated as vibrations and this may
      cause some error
  (4) All equations used are the standard statistical mechanics
      equations for an ideal gas
  (5) All vibrations are strictly harmonic

freq.     213.62  E(vib)   ...       0.34
freq.     249.71  E(vib)   ...       0.31
freq.     406.24  E(vib)   ...       0.19
freq.     425.06  E(vib)   ...       0.18
freq.     546.50  E(vib)   ...       0.12
freq.     585.36  E(vib)   ...       0.11
freq.     598.36  E(vib)   ...       0.10
freq.     620.60  E(vib)   ...       0.09
freq.     742.29  E(vib)   ...       0.06
freq.     753.76  E(vib)   ...       0.06
freq.     776.32  E(vib)   ...       0.05
freq.     782.77  E(vib)   ...       0.05
freq.     862.40  E(vib)   ...       0.04
freq.     869.84  E(vib)   ...       0.04
freq.     870.15  E(vib)   ...       0.04
freq.     910.63  E(vib)   ...       0.03
freq.     944.70  E(vib)   ...       0.03
freq.     988.65  E(vib)   ...       0.02
freq.    1025.44  E(vib)   ...       0.02
freq.    1040.00  E(vib)   ...       0.02
freq.    1116.38  E(vib)   ...       0.01
freq.    1135.12  E(vib)   ...       0.01
freq.    1156.42  E(vib)   ...       0.01
freq.    1180.42  E(vib)   ...       0.01
freq.    1266.90  E(vib)   ...       0.01
freq.    1284.32  E(vib)   ...       0.01
freq.    1356.54  E(vib)   ...       0.01
freq.    1406.46  E(vib)   ...       0.00
freq.    1468.55  E(vib)   ...       0.00
freq.    1495.89  E(vib)   ...       0.00
freq.    1560.82  E(vib)   ...       0.00
freq.    1617.57  E(vib)   ...       0.00
freq.    1645.56  E(vib)   ...       0.00
freq.    3163.51  E(vib)   ...       0.00
freq.    3174.82  E(vib)   ...       0.00
freq.    3183.51  E(vib)   ...       0.00
freq.    3193.39  E(vib)   ...       0.00
freq.    3239.46  E(vib)   ...       0.00
freq.    3266.75  E(vib)   ...       0.00

------------
INNER ENERGY
------------

The inner energy is: U= E(el) + E(ZPE) + E(vib) + E(rot) + E(trans)
    E(el)   - is the total energy from the electronic structure calculation
              = E(kin-el) + E(nuc-el) + E(el-el) + E(nuc-nuc)
    E(ZPE)  - the the zero temperature vibrational energy from the frequency calculation
    E(vib)  - the the finite temperature correction to E(ZPE) due to population
              of excited vibrational states
    E(rot)  - is the rotational thermal energy
    E(trans)- is the translational thermal energy

Summary of contributions to the inner energy U:
Electronic energy                ...   -383.61479655 Eh
Zero point energy                ...      0.11647074 Eh      73.09 kcal/mol
Thermal vibrational correction   ...      0.00317256 Eh       1.99 kcal/mol
Thermal rotational correction    ...      0.00141627 Eh       0.89 kcal/mol
Thermal translational correction ...      0.00141627 Eh       0.89 kcal/mol
-----------------------------------------------------------------------
Total thermal energy                   -383.49232070 Eh

Summary of corrections to the electronic energy:
(perhaps to be used in another calculation)
Total thermal correction                  0.00600510 Eh       3.77 kcal/mol
Non-thermal (ZPE) correction              0.11647074 Eh      73.09 kcal/mol
-----------------------------------------------------------------------
Total correction                          0.12247584 Eh      76.85 kcal/mol

--------
ENTHALPY
--------

The enthalpy is H = U + kB*T
                kB is Boltzmann's constant
Total thermal energy              ...   -383.49232070 Eh
Thermal Enthalpy correction       ...      0.00094421 Eh       0.59 kcal/mol
-----------------------------------------------------------------------
Total Enthalpy                    ...   -383.49137649 Eh

Note: Only C1 symmetry has been detected, increase convergence thresholds
      if your molecule has a higher symmetry. Symmetry factor of 1.0 is
      used for the rotational entropy correction.

Note: Rotational entropy computed according to Herzberg
Infrared and Raman Spectra, Chapter V,1, Van Nostrand Reinhold, 1945
Point Group:  C1, Symmetry Number:   1
Rotational constants in cm-1:     0.131136     0.055612     0.039051

Vibrational entropy computed according to the QRRHO of S. Grimme
Chem.Eur.J. 2012 18 9955 using a reference frequency of 100.0 cm-1

-------
ENTROPY
-------

The entropy contributions are T*S = T*(S(el)+S(vib)+S(rot)+S(trans))
     S(el)   - electronic entropy
     S(vib)  - vibrational entropy
     S(rot)  - rotational entropy
     S(trans)- translational entropy
The entropies will be listed as multiplied by the temperature to get
units of energy

Electronic entropy                ...      0.00000000 Eh      0.00 kcal/mol
Vibrational entropy               ...      0.00464344 Eh      2.91 kcal/mol
Rotational entropy                ...      0.01336484 Eh      8.39 kcal/mol
Translational entropy             ...      0.01910727 Eh     11.99 kcal/mol
-----------------------------------------------------------------------
Final entropy term                ...      0.03711555 Eh     23.29 kcal/mol

In case the symmetry of your molecule has not been determined correctly
or in case you have a reason to use a different symmetry number we print
out the resulting rotational entropy values for sn=1,12:

 non-linear molecules -----------------------------------
|  sn= 1 | S(rot)=       0.01336484 Eh      8.39 kcal/mol|
|  sn= 2 | S(rot)=       0.01271038 Eh      7.98 kcal/mol|
|  sn= 3 | S(rot)=       0.01232755 Eh      7.74 kcal/mol|
|  sn= 4 | S(rot)=       0.01205593 Eh      7.57 kcal/mol|
|  sn= 5 | S(rot)=       0.01184524 Eh      7.43 kcal/mol|
|  sn= 6 | S(rot)=       0.01167310 Eh      7.32 kcal/mol|
|  sn= 7 | S(rot)=       0.01152755 Eh      7.23 kcal/mol|
|  sn= 8 | S(rot)=       0.01140147 Eh      7.15 kcal/mol|
|  sn= 9 | S(rot)=       0.01129026 Eh      7.08 kcal/mol|
|  sn=10 | S(rot)=       0.01119078 Eh      7.02 kcal/mol|
|  sn=11 | S(rot)=       0.01110079 Eh      6.97 kcal/mol|
|  sn=12 | S(rot)=       0.01101864 Eh      6.91 kcal/mol|
 linear molecules ---------------------------------------
|  Dinfh | S(rot)=       0.00838767 Eh      5.26 kcal/mol|
|  Cinfv | S(rot)=       0.00904213 Eh      5.67 kcal/mol|
 --------------------------------------------------------

-------------------
GIBBS FREE ENERGY
-------------------

                             ****ORCA TERMINATED NORMALLY****
TOTAL RUN TIME: 0 days 0 hours 14 minutes 59 seconds 927 msec
