                         Program Version 6.0.0  -   RELEASE  -
|  1> !TPSSh aug-cc-pVTZ d3 TightSCF SlowConv RIJCOSX defgrid2
|  2>
|  3> %pal
|  4> nprocs 4
|  5> end
|  6>
|  7> %scf
|  8> MaxIter 1500
|  9> end
| 10>
| 11> %maxcore 3000
| 12>
| 13> !CPCM
| 14> %cpcm smd true
| 15> SMDsolvent "MeCN"
| 16> surfacetype gepol_ses
| 17> rsolv 2.19
| 18> end
| 19>
| 20> * xyz 0 1
| 21> C           1.53272654443288     -1.20734713575059      0.00001134953925
| 22> C           2.23205656040314      0.00003376074589      0.00002131461898
| 23> C           1.53261692111977      1.20735327461293      0.00000329748612
| 24> C           0.14128323670377      1.21145943804893     -0.00003641879993
| 25> C          -0.57083167401632     -0.00009614629977     -0.00005172301107
| 26> C           0.14138939561012     -1.21158285716611     -0.00002530102841
| 27> H          -0.41093083938214     -2.15464364427352     -0.00004270609566
| 28> C          -2.00037464606059     -0.00010505901986     -0.00009934791315
| 29> C          -3.21371752895327      0.00086010309321     -0.00022829616000
| 30> H          -4.28895933598145     -0.00028893327027      0.00071781614810
| 31> H          -0.41113044461304      2.15446486831874     -0.00006102811420
| 32> H           2.07747601296685      2.15600861535335      0.00001063551847
| 33> H           3.32604809148087      0.00008333329139      0.00003835626390
| 34> H           2.07768150628941     -2.15594681768433      0.00002525154760
| 35> *
| 36>
| 37>                          ****END OF INPUT****

CARTESIAN COORDINATES (ANGSTROEM)
---------------------------------
  C      1.532727   -1.207347    0.000011
  C      2.232057    0.000034    0.000021
  C      1.532617    1.207353    0.000003
  C      0.141283    1.211459   -0.000036
  C     -0.570832   -0.000096   -0.000052
  C      0.141389   -1.211583   -0.000025
  H     -0.410931   -2.154644   -0.000043
  C     -2.000375   -0.000105   -0.000099
  C     -3.213718    0.000860   -0.000228
  H     -4.288959   -0.000289    0.000718
  H     -0.411130    2.154465   -0.000061
  H      2.077476    2.156009    0.000011
  H      3.326048    0.000083    0.000038
  H      2.077682   -2.155947    0.000025

 Total Charge           Charge          ....    0
 Multiplicity           Mult            ....    1
 Number of Electrons    NEL             ....   54
 Basis Dimension        Dim             ....  506

ORBITAL ENERGIES
----------------

  NO   OCC          E(Eh)            E(eV)
   0   2.0000     -10.148911      -276.1659
   1   2.0000     -10.127191      -275.5749
   2   2.0000     -10.127191      -275.5749
   3   2.0000     -10.126746      -275.5628
   4   2.0000     -10.123394      -275.4715
   5   2.0000     -10.122714      -275.4530
   6   2.0000     -10.122540      -275.4483
   7   2.0000     -10.117657      -275.3155
   8   2.0000      -0.848216       -23.0811
   9   2.0000      -0.769153       -20.9297
  10   2.0000      -0.733453       -19.9583
  11   2.0000      -0.713014       -19.4021
  12   2.0000      -0.608916       -16.5695
  13   2.0000      -0.592413       -16.1204
  14   2.0000      -0.531956       -14.4753
  15   2.0000      -0.495824       -13.4921
  16   2.0000      -0.459205       -12.4956
  17   2.0000      -0.441438       -12.0121
  18   2.0000      -0.417335       -11.3563
  19   2.0000      -0.406097       -11.0505
  20   2.0000      -0.375552       -10.2193
  21   2.0000      -0.342007        -9.3065
  22   2.0000      -0.333689        -9.0801
  23   2.0000      -0.306919        -8.3517
  24   2.0000      -0.274791        -7.4775
  25   2.0000      -0.253773        -6.9055
  26   2.0000      -0.233642        -6.3577
  27   0.0000      -0.054934        -1.4948
  28   0.0000      -0.030633        -0.8336
  29   0.0000      -0.003836        -0.1044
  30   0.0000       0.010519         0.2862
  31   0.0000       0.011556         0.3144

MULLIKEN ATOMIC CHARGES
-----------------------
   0 C :   -0.384285
   1 C :    0.003842
   2 C :   -0.386478
   3 C :   -0.987045
   4 C :    1.193388
   5 C :   -0.989323
   6 H :   -0.410097
   7 C :    1.327888
   8 C :   -0.288748
   9 H :    0.079686
  10 H :   -0.408131
  11 H :    0.456217
  12 H :    0.336308
  13 H :    0.456778
Sum of atomic charges:    0.0000000

LOEWDIN ATOMIC CHARGES
----------------------
   0 C :    0.195025
   1 C :    0.192283
   2 C :    0.195030
   3 C :    0.191801
   4 C :   -0.233141
   5 C :    0.191809
   6 H :   -0.163924
   7 C :   -0.021705
   8 C :    0.402946
   9 H :   -0.282287
  10 H :   -0.163923
  11 H :   -0.167873
  12 H :   -0.168168
  13 H :   -0.167875

  Mayer bond orders larger than 0.100000
B(  0-C ,  1-C ) :   1.2934 B(  0-C ,  3-C ) :   0.1802 B(  0-C ,  4-C ) :   0.2923
B(  0-C ,  5-C ) :   1.4958 B(  0-C ,  8-C ) :  -0.1989 B(  0-C , 13-H ) :   0.5954
B(  1-C ,  2-C ) :   1.2932 B(  1-C ,  3-C ) :  -0.2036 B(  1-C ,  4-C ) :  -0.3745
B(  1-C ,  5-C ) :  -0.2042 B(  1-C ,  7-C ) :   0.4057 B(  1-C ,  8-C ) :   0.2021
B(  1-C , 11-H ) :   0.1149 B(  1-C , 12-H ) :   0.6917 B(  1-C , 13-H ) :   0.1151
B(  2-C ,  3-C ) :   1.4977 B(  2-C ,  4-C ) :   0.2920 B(  2-C ,  5-C ) :   0.1814
B(  2-C ,  8-C ) :  -0.1987 B(  2-C , 11-H ) :   0.5950 B(  3-C ,  4-C ) :   0.6010
B(  3-C ,  5-C ) :  -0.3919 B(  3-C ,  6-H ) :   0.2520 B(  3-C ,  7-C ) :   0.2436
B(  3-C ,  8-C ) :  -0.1727 B(  3-C , 10-H ) :   1.9935 B(  3-C , 11-H ) :  -0.2379
B(  4-C ,  5-C ) :   0.6023 B(  4-C ,  6-H ) :   0.2074 B(  4-C ,  7-C ) :  -0.2669
B(  4-C ,  8-C ) :   0.8794 B(  4-C ,  9-H ) :   0.1510 B(  4-C , 10-H ) :   0.2070
B(  4-C , 11-H ) :   0.1114 B(  4-C , 13-H ) :   0.1098 B(  5-C ,  6-H ) :   1.9959
B(  5-C ,  7-C ) :   0.2433 B(  5-C ,  8-C ) :  -0.1746 B(  5-C , 10-H ) :   0.2504
B(  5-C , 13-H ) :  -0.2386 B(  6-H ,  7-C ) :  -0.4406 B(  6-H ,  8-C ) :  -0.5355
B(  6-H , 10-H ) :   0.5131 B(  6-H , 13-H ) :  -0.1491 B(  7-C ,  8-C ) :   2.4328
B(  7-C ,  9-H ) :  -0.3002 B(  7-C , 10-H ) :  -0.4380 B(  8-C ,  9-H ) :   1.3410
B(  8-C , 10-H ) :  -0.5335 B(  8-C , 11-H ) :   0.2476 B(  8-C , 13-H ) :   0.2487
B( 10-H , 11-H ) :  -0.1483

Dispersion correction           -0.016477262
FINAL SINGLE POINT ENERGY      -308.549313627982

DIPOLE MOMENT
-------------

Method             : SCF
Type of density    : Electron Density
Multiplicity       :   1
Irrep              :   0
Energy             :  -308.5328363655362978 Eh
Relativity type    :
Basis              : AO
                                X                 Y                 Z
Electronic contribution:     -1.770320690       0.000067286      -0.000453452
Nuclear contribution   :      2.227582411      -0.000665596       0.000875711
                        -----------------------------------------
Total Dipole Moment    :      0.457261721      -0.000598310       0.000422258
                        -----------------------------------------
Magnitude (a.u.)       :      0.457262307
Magnitude (Debye)      :      1.162268417

Rotational constants in cm-1:             0.189401             0.050851             0.040088
Rotational constants in MHz :          5678.091161          1524.476874          1201.810057

                             ****ORCA TERMINATED NORMALLY****
TOTAL RUN TIME: 0 days 0 hours 3 minutes 20 seconds 64 msec
