                         Program Version 6.0.0  -   RELEASE  -
|  1> !r2SCANh aug-cc-pVTZ d3 TightSCF SlowConv RIJCOSX defgrid2
|  2>
|  3> %pal
|  4> nprocs 4
|  5> end
|  6>
|  7> %scf
|  8> MaxIter 1500
|  9> end
| 10>
| 11> %maxcore 3000
| 12>
| 13> !CPCM
| 14> %cpcm smd true
| 15> SMDsolvent "MeCN"
| 16> surfacetype gepol_ses
| 17> rsolv 2.19
| 18> end
| 19>
| 20> * xyz -1 2
| 21> C          -0.04188476412109      1.20649591058260     -0.03059416435324
| 22> C          -1.42758997777244      1.20900092946328     -0.03204837740890
| 23> C          -2.18692767221781      0.02207756810286      0.00778089457379
| 24> C          -1.45245337452024     -1.19449457929778      0.04973241541109
| 25> C          -0.07593539048064     -1.21797796728122      0.05192894437349
| 26> C           0.70678686425334     -0.01719078736669      0.01222307749959
| 27> C           2.13722784115349     -0.10484845335572      0.01744599702996
| 28> O           2.77208408754572     -1.18919588733710      0.05436257040856
| 29> C           2.92761835814378      1.20197912887557     -0.02401472346093
| 30> H           3.99999527748817      0.94544780793909     -0.00555889368703
| 31> H           2.70732243738998      1.86415452535943      0.83824522074103
| 32> H           2.72299463114472      1.79839278568954     -0.93685074419013
| 33> H           0.47712353923980     -2.16170105523587      0.08479607463559
| 34> H          -2.00439456793065     -2.14494416213367      0.08164110604136
| 35> C          -3.68607504217989      0.02910769331193      0.00570061758528
| 36> H          -4.12174618431185     -0.45223229822142      0.90826315907933
| 37> H          -4.07802845542654      1.06256533456533     -0.02773326831382
| 38> H          -4.11993664787437     -0.50875039977053     -0.86531963898993
| 39> H          -1.95661019184379      2.17233863527966     -0.06580811854855
| 40> H           0.48615773232032      2.16549327083070     -0.06358124842653
| 41> *
| 42>
| 43>                          ****END OF INPUT****

CARTESIAN COORDINATES (ANGSTROEM)
---------------------------------
  C     -0.041885    1.206496   -0.030594
  C     -1.427590    1.209001   -0.032048
  C     -2.186928    0.022078    0.007781
  C     -1.452453   -1.194495    0.049732
  C     -0.075935   -1.217978    0.051929
  C      0.706787   -0.017191    0.012223
  C      2.137228   -0.104848    0.017446
  O      2.772084   -1.189196    0.054363
  C      2.927618    1.201979   -0.024015
  H      3.999995    0.945448   -0.005559
  H      2.707322    1.864155    0.838245
  H      2.722995    1.798393   -0.936851
  H      0.477124   -2.161701    0.084796
  H     -2.004395   -2.144944    0.081641
  C     -3.686075    0.029108    0.005701
  H     -4.121746   -0.452232    0.908263
  H     -4.078028    1.062565   -0.027733
  H     -4.119937   -0.508750   -0.865320
  H     -1.956610    2.172339   -0.065808
  H      0.486158    2.165493   -0.063581

 Total Charge           Charge          ....   -1
 Multiplicity           Mult            ....    2
 Number of Electrons    NEL             ....   73
 Basis Dimension        Dim             ....  690

ORBITAL ENERGIES
----------------
                 SPIN UP ORBITALS
  NO   OCC          E(Eh)            E(eV)
   0   1.0000     -19.033494      -517.9277
   1   1.0000     -10.168515      -276.6994
   2   1.0000     -10.137186      -275.8468
   3   1.0000     -10.136949      -275.8404
   4   1.0000     -10.133749      -275.7533
   5   1.0000     -10.133303      -275.7412
   6   1.0000     -10.132245      -275.7124
   7   1.0000     -10.129007      -275.6243
   8   1.0000     -10.123798      -275.4826
   9   1.0000     -10.121965      -275.4327
  10   1.0000      -0.965423       -26.2705
  11   1.0000      -0.828273       -22.5385
  12   1.0000      -0.752374       -20.4731
  13   1.0000      -0.719611       -19.5816
  14   1.0000      -0.698466       -19.0062
  15   1.0000      -0.657307       -17.8862
  16   1.0000      -0.577168       -15.7055
  17   1.0000      -0.566574       -15.4173
  18   1.0000      -0.509998       -13.8777
  19   1.0000      -0.451236       -12.2788
  20   1.0000      -0.428784       -11.6678
  21   1.0000      -0.411251       -11.1907
  22   1.0000      -0.397850       -10.8260
  23   1.0000      -0.393404       -10.7051
  24   1.0000      -0.389727       -10.6050
  25   1.0000      -0.379158       -10.3174
  26   1.0000      -0.364885        -9.9290
  27   1.0000      -0.341552        -9.2941
  28   1.0000      -0.338528        -9.2118
  29   1.0000      -0.334649        -9.1063
  30   1.0000      -0.315213        -8.5774
  31   1.0000      -0.302780        -8.2391
  32   1.0000      -0.287101        -7.8124
  33   1.0000      -0.237089        -6.4515
  34   1.0000      -0.221280        -6.0213
  35   1.0000      -0.193311        -5.2603
  36   1.0000      -0.086508        -2.3540
  37   0.0000      -0.003456        -0.0941
  38   0.0000       0.008416         0.2290
  39   0.0000       0.020517         0.5583
  40   0.0000       0.025701         0.6994
  41   0.0000       0.031658         0.8615

                 SPIN DOWN ORBITALS
  NO   OCC          E(Eh)            E(eV)
   0   1.0000     -19.026854      -517.7470
   1   1.0000     -10.163541      -276.5640
   2   1.0000     -10.137584      -275.8577
   3   1.0000     -10.135732      -275.8073
   4   1.0000     -10.135188      -275.7925
   5   1.0000     -10.131186      -275.6836
   6   1.0000     -10.128910      -275.6216
   7   1.0000     -10.126143      -275.5463
   8   1.0000     -10.124263      -275.4952
   9   1.0000     -10.121070      -275.4083
  10   1.0000      -0.954120       -25.9629
  11   1.0000      -0.823622       -22.4119
  12   1.0000      -0.744806       -20.2672
  13   1.0000      -0.716513       -19.4973
  14   1.0000      -0.694456       -18.8971
  15   1.0000      -0.656953       -17.8766
  16   1.0000      -0.568156       -15.4603
  17   1.0000      -0.563777       -15.3412
  18   1.0000      -0.505650       -13.7594
  19   1.0000      -0.446458       -12.1488
  20   1.0000      -0.427325       -11.6281
  21   1.0000      -0.407252       -11.0819
  22   1.0000      -0.392530       -10.6813
  23   1.0000      -0.386978       -10.5302
  24   1.0000      -0.381310       -10.3760
  25   1.0000      -0.378415       -10.2972
  26   1.0000      -0.362533        -9.8650
  27   1.0000      -0.339199        -9.2301
  28   1.0000      -0.337260        -9.1773
  29   1.0000      -0.325129        -8.8472
  30   1.0000      -0.312922        -8.5150
  31   1.0000      -0.285942        -7.7809
  32   1.0000      -0.279238        -7.5984
  33   1.0000      -0.228234        -6.2106
  34   1.0000      -0.199964        -5.4413
  35   1.0000      -0.188190        -5.1209
  36   0.0000      -0.024160        -0.6574
  37   0.0000       0.000970         0.0264
  38   0.0000       0.011106         0.3022
  39   0.0000       0.023043         0.6270
  40   0.0000       0.027967         0.7610

MULLIKEN ATOMIC CHARGES AND SPIN POPULATIONS
--------------------------------------------
   0 C :   -0.596100    0.307395
   1 C :   -0.932953   -0.196169
   2 C :    1.724895    0.395583
   3 C :   -1.108104   -0.173202
   4 C :   -1.500634    0.251415
   5 C :    2.064837    0.025393
   6 C :    0.632690    0.254011
   7 O :   -1.118745    0.225918
   8 C :   -0.609293   -0.056074
   9 H :    0.159058   -0.006495
  10 H :    0.220540    0.021257
  11 H :    0.219341    0.021646
  12 H :   -0.187448   -0.019802
  13 H :    0.300162   -0.003519
  14 C :   -0.830099   -0.066268
  15 H :    0.200258    0.022702
  16 H :    0.175201   -0.005027
  17 H :    0.202237    0.022860
  18 H :    0.055403   -0.009356
  19 H :   -0.071248   -0.012268
Sum of atomic charges         :   -1.0000000

LOEWDIN ATOMIC CHARGES AND SPIN POPULATIONS
-------------------------------------------
   0 C :    0.149419    0.102386
   1 C :    0.152521    0.018725
   2 C :   -0.179604    0.136838
   3 C :    0.153607    0.014527
   4 C :    0.134596    0.084761
   5 C :   -0.216395    0.115939
   6 C :   -0.682466    0.186441
   7 O :    0.328135    0.196752
   8 C :    0.494143    0.035087
   9 H :   -0.205134   -0.001013
  10 H :   -0.180630    0.009172
  11 H :   -0.179862    0.009287
  12 H :   -0.216014    0.019809
  13 H :   -0.180517   -0.007310
  14 C :    0.528346    0.041959
  15 H :   -0.164224    0.010138
  16 H :   -0.180376    0.000519
  17 H :   -0.164098    0.010189
  18 H :   -0.184443   -0.007946
  19 H :   -0.207002    0.023740

  Mayer bond orders larger than 0.100000
B(  0-C ,  1-C ) :   1.1981 B(  0-C ,  3-C ) :  -0.3462 B(  0-C ,  4-C ) :  -0.6639
B(  0-C ,  6-C ) :   0.2737 B(  0-C , 19-H ) :   1.6148 B(  1-C ,  2-C ) :   0.4012
B(  1-C ,  3-C ) :  -0.1374 B(  1-C ,  4-C ) :   0.2183 B(  1-C ,  6-C ) :  -0.1166
B(  1-C , 12-H ) :  -0.1113 B(  1-C , 14-C ) :  -0.1451 B(  1-C , 18-H ) :   1.3275
B(  2-C ,  3-C ) :   0.4550 B(  2-C ,  6-C ) :   0.1675 B(  2-C , 12-H ) :  -0.1261
B(  2-C , 15-H ) :  -0.1250 B(  2-C , 17-H ) :  -0.1236 B(  2-C , 18-H ) :  -0.1323
B(  3-C ,  4-C ) :   1.5737 B(  3-C , 13-H ) :   0.8917 B(  3-C , 14-C ) :   0.2703
B(  3-C , 19-H ) :  -0.1118 B(  4-C ,  5-C ) :  -0.5231 B(  4-C ,  6-C ) :   0.3807
B(  4-C , 12-H ) :   1.7155 B(  4-C , 19-H ) :   0.1248 B(  5-C ,  6-C ) :   0.4722
B(  5-C ,  7-O ) :   0.3116 B(  5-C , 12-H ) :  -0.3184 B(  5-C , 14-C ) :   0.1160
B(  5-C , 19-H ) :  -0.3302 B(  6-C ,  7-O ) :   0.4696 B(  6-C ,  8-C ) :   0.9014
B(  6-C , 12-H ) :  -0.1400 B(  6-C , 13-H ) :   0.1766 B(  7-O , 12-H ) :   0.1882
B(  8-C ,  9-H ) :   0.9552 B(  8-C , 10-H ) :   0.9776 B(  8-C , 11-H ) :   0.9780
B( 12-H , 19-H ) :   0.1179 B( 14-C , 15-H ) :   1.0296 B( 14-C , 16-H ) :   1.0265
B( 14-C , 17-H ) :   1.0268

Dispersion correction           -0.006434621
FINAL SINGLE POINT ENERGY      -424.199788813502

DIPOLE MOMENT
-------------

Method             : SCF
Type of density    : Electron Density
Multiplicity       :   2
Irrep              :   0
Energy             :  -424.1933541929350326 Eh
Relativity type    :
Basis              : AO
                                X                 Y                 Z
Electronic contribution:      3.064676528      -3.046459993       0.103079112
Nuclear contribution   :     -5.565601107       4.473854075      -0.154054051
                        -----------------------------------------
Total Dipole Moment    :     -2.500924579       1.427394082      -0.050974938
                        -----------------------------------------
Magnitude (a.u.)       :      2.880047926
Magnitude (Debye)      :      7.320500059

Rotational constants in cm-1:             0.119092             0.025902             0.021447
Rotational constants in MHz :          3570.280980           776.510270           642.950997

                             ****ORCA TERMINATED NORMALLY****
TOTAL RUN TIME: 0 days 0 hours 9 minutes 8 seconds 405 msec
