                         Program Version 6.0.0  -   RELEASE  -
|  1> !r2SCAN aug-cc-pVTZ d3 TightSCF SlowConv RIJCOSX defgrid2
|  2>
|  3> %pal
|  4> nprocs 4
|  5> end
|  6>
|  7> %scf
|  8> MaxIter 1500
|  9> end
| 10>
| 11> %maxcore 3000
| 12>
| 13> !CPCM
| 14> %cpcm smd true
| 15> SMDsolvent "MeCN"
| 16> surfacetype gepol_ses
| 17> rsolv 2.19
| 18> end
| 19>
| 20> * xyz 0 1
| 21> C           1.12535933003909      1.22184876665946      0.00445520319991
| 22> C          -0.26421837966179      1.23081993194340      0.01317294666685
| 23> C          -0.96286430889490      0.02291905897302      0.02071941900053
| 24> C          -0.27116790812085     -1.18968803907145      0.02233603706903
| 25> C           1.11927983593575     -1.19274556967928      0.01192236383456
| 26> C           1.83042608643697      0.01361001085842      0.00235629509897
| 27> C           3.33037499820744      0.07812373067826     -0.00830505647652
| 28> O           3.89335056176083      1.14924412695364     -0.01221784590005
| 29> C           4.10529699500755     -1.21691160959464     -0.01456211029497
| 30> H           3.87147665667906     -1.82176550317243      0.87909273734606
| 31> H           3.85275608025563     -1.82519649459447     -0.90071459246678
| 32> H           5.18018449663339     -0.98545182796753     -0.02600819379244
| 33> H           1.64770213714144     -2.14919199620359      0.01366659940447
| 34> H          -0.82322456445574     -2.13316803225065      0.03516466443551
| 35> C          -2.46760978555516      0.00136363107126     -0.00390087802805
| 36> F          -2.92475509769190     -0.39380754718327     -1.19713617306479
| 37> F          -2.95620262622450     -0.85163753941636      0.90171536543609
| 38> F          -2.99122934584873      1.20180958170133      0.24662255340156
| 39> H          -0.81146024395866      2.17606304264227      0.01753239307008
| 40> H           1.69903008231505      2.15205687765261      0.00003667206000
| 41> *
| 42>
| 43>                          ****END OF INPUT****

CARTESIAN COORDINATES (ANGSTROEM)
---------------------------------
  C      1.125359    1.221849    0.004455
  C     -0.264218    1.230820    0.013173
  C     -0.962864    0.022919    0.020719
  C     -0.271168   -1.189688    0.022336
  C      1.119280   -1.192746    0.011922
  C      1.830426    0.013610    0.002356
  C      3.330375    0.078124   -0.008305
  O      3.893351    1.149244   -0.012218
  C      4.105297   -1.216912   -0.014562
  H      3.871477   -1.821766    0.879093
  H      3.852756   -1.825196   -0.900715
  H      5.180184   -0.985452   -0.026008
  H      1.647702   -2.149192    0.013667
  H     -0.823225   -2.133168    0.035165
  C     -2.467610    0.001364   -0.003901
  F     -2.924755   -0.393808   -1.197136
  F     -2.956203   -0.851638    0.901715
  F     -2.991229    1.201810    0.246623
  H     -0.811460    2.176063    0.017532
  H      1.699030    2.152057    0.000037

 Total Charge           Charge          ....    0
 Multiplicity           Mult            ....    1
 Number of Electrons    NEL             ....   96
 Basis Dimension        Dim             ....  759

ORBITAL ENERGIES
----------------

  NO   OCC          E(Eh)            E(eV)
   0   2.0000     -24.532374      -667.5598
   1   2.0000     -24.530568      -667.5107
   2   2.0000     -24.529988      -667.4949
   3   2.0000     -18.948891      -515.6255
   4   2.0000     -10.290893      -280.0294
   5   2.0000     -10.130424      -275.6628
   6   2.0000     -10.075800      -274.1765
   7   2.0000     -10.061809      -273.7958
   8   2.0000     -10.061161      -273.7781
   9   2.0000     -10.060532      -273.7610
  10   2.0000     -10.059710      -273.7386
  11   2.0000     -10.055877      -273.6343
  12   2.0000     -10.032219      -272.9906
  13   2.0000      -1.288118       -35.0515
  14   2.0000      -1.199948       -32.6523
  15   2.0000      -1.197093       -32.5746
  16   2.0000      -1.016009       -27.6470
  17   2.0000      -0.848531       -23.0897
  18   2.0000      -0.769026       -20.9262
  19   2.0000      -0.733454       -19.9583
  20   2.0000      -0.708609       -19.2822
  21   2.0000      -0.674802       -18.3623
  22   2.0000      -0.612744       -16.6736
  23   2.0000      -0.597153       -16.2494
  24   2.0000      -0.565984       -15.4012
  25   2.0000      -0.559869       -15.2348
  26   2.0000      -0.540930       -14.7195
  27   2.0000      -0.527067       -14.3422
  28   2.0000      -0.459394       -12.5008
  29   2.0000      -0.448393       -12.2014
  30   2.0000      -0.440386       -11.9835
  31   2.0000      -0.436792       -11.8857
  32   2.0000      -0.423588       -11.5264
  33   2.0000      -0.415498       -11.3063
  34   2.0000      -0.406878       -11.0717
  35   2.0000      -0.403891       -10.9904
  36   2.0000      -0.399246       -10.8640
  37   2.0000      -0.395269       -10.7558
  38   2.0000      -0.387606       -10.5473
  39   2.0000      -0.378585       -10.3018
  40   2.0000      -0.360741        -9.8163
  41   2.0000      -0.352544        -9.5932
  42   2.0000      -0.335357        -9.1255
  43   2.0000      -0.334537        -9.1032
  44   2.0000      -0.322915        -8.7870
  45   2.0000      -0.259797        -7.0694
  46   2.0000      -0.255017        -6.9394
  47   2.0000      -0.227202        -6.1825
  48   0.0000      -0.098616        -2.6835
  49   0.0000      -0.052175        -1.4198
  50   0.0000      -0.010649        -0.2898
  51   0.0000       0.004661         0.1268
  52   0.0000       0.019069         0.5189

MULLIKEN ATOMIC CHARGES
-----------------------
   0 C :   -1.108093
   1 C :   -0.626373
   2 C :    0.838580
   3 C :   -0.988548
   4 C :   -0.506041
   5 C :    1.556423
   6 C :    0.893325
   7 O :   -0.963913
   8 C :   -0.531075
   9 H :    0.242676
  10 H :    0.239812
  11 H :    0.152768
  12 H :   -0.038327
  13 H :    0.360354
  14 C :    1.168518
  15 F :   -0.371411
  16 F :   -0.383999
  17 F :   -0.355204
  18 H :    0.301678
  19 H :    0.118851
Sum of atomic charges:   -0.0000000

LOEWDIN ATOMIC CHARGES
----------------------
   0 C :    0.212484
   1 C :    0.218477
   2 C :   -0.173683
   3 C :    0.219465
   4 C :    0.227404
   5 C :   -0.120662
   6 C :   -0.540435
   7 O :    0.492851
   8 C :    0.575464
   9 H :   -0.156221
  10 H :   -0.156301
  11 H :   -0.175841
  12 H :   -0.168836
  13 H :   -0.159104
  14 C :   -1.587782
  15 F :    0.542569
  16 F :    0.547827
  17 F :    0.559760
  18 H :   -0.175552
  19 H :   -0.181883

  Mayer bond orders larger than 0.100000
B(  0-C ,  1-C ) :   1.2213 B(  0-C ,  4-C ) :  -0.4260 B(  0-C ,  6-C ) :   0.2114
B(  0-C , 19-H ) :   1.0777 B(  1-C ,  2-C ) :   0.5839 B(  1-C , 18-H ) :   0.8012
B(  2-C ,  3-C ) :   0.6316 B(  2-C , 14-C ) :   0.8992 B(  2-C , 15-F ) :   0.1505
B(  2-C , 16-F ) :   0.1401 B(  2-C , 17-F ) :   0.1575 B(  3-C ,  4-C ) :   0.8394
B(  3-C , 13-H ) :   0.7043 B(  4-C ,  5-C ) :   0.4068 B(  4-C , 12-H ) :   1.5100
B(  5-C ,  6-C ) :   0.3956 B(  5-C ,  7-O ) :   0.2827 B(  5-C ,  8-C ) :   0.1047
B(  5-C , 12-H ) :  -0.1945 B(  6-C ,  7-O ) :   0.7422 B(  6-C ,  8-C ) :   0.9333
B(  7-O , 19-H ) :   0.1420 B(  8-C ,  9-H ) :   0.9616 B(  8-C , 10-H ) :   0.9634
B(  8-C , 11-H ) :   0.9494 B( 14-C , 15-F ) :   0.7853 B( 14-C , 16-F ) :   0.7560
B( 14-C , 17-F ) :   0.7028

Dispersion correction           -0.006462582
FINAL SINGLE POINT ENERGY      -721.884864698400

DIPOLE MOMENT
-------------

Method             : SCF
Type of density    : Electron Density
Multiplicity       :   1
Irrep              :   0
Energy             :  -721.8784021163330635 Eh
Relativity type    :
Basis              : AO
                                X                 Y                 Z
Electronic contribution:    -21.654390081       2.969183047      -0.049613766
Nuclear contribution   :     22.009157676      -4.256883990       0.073247664
                        -----------------------------------------
Total Dipole Moment    :      0.354767595      -1.287700942       0.023633898
                        -----------------------------------------
Magnitude (a.u.)       :      1.335886344
Magnitude (Debye)      :      3.395553238

Rotational constants in cm-1:             0.074861             0.012555             0.011413
Rotational constants in MHz :          2244.280303           376.379088           342.159113

                             ****ORCA TERMINATED NORMALLY****
TOTAL RUN TIME: 0 days 0 hours 4 minutes 0 seconds 984 msec
