                         Program Version 6.0.0  -   RELEASE  -
|  1> !PBE0 aug-cc-pVTZ d3 TightSCF SlowConv RIJCOSX defgrid2
|  2>
|  3> %pal
|  4> nprocs 4
|  5> end
|  6>
|  7> %scf
|  8> MaxIter 1500
|  9> end
| 10>
| 11> %maxcore 3000
| 12>
| 13> !CPCM
| 14> %cpcm smd true
| 15> SMDsolvent "MeCN"
| 16> surfacetype gepol_ses
| 17> rsolv 2.19
| 18> end
| 19>
| 20> * xyz 0 1
| 21> C          -0.01157783641881      1.20352898199244      0.00001890353025
| 22> C           1.37990540430455      1.22191450811359      0.00011854591947
| 23> C           2.06592899516975      0.01252414866139      0.00007181753194
| 24> C           1.39794249050432     -1.20933071970230     -0.00006681343243
| 25> C           0.01016197626576     -1.21076373795935     -0.00015906863819
| 26> C          -0.71228022521915     -0.00932565619212     -0.00012281102354
| 27> C          -2.20544538942687     -0.09111368239076     -0.00023883939795
| 28> O          -2.76237956084169     -1.16697560386648     -0.00031741607190
| 29> C          -2.99637020201978      1.19627311334720     -0.00027997588088
| 30> H          -2.76201741553525      1.80607989056811      0.88981335524989
| 31> H          -2.76168147330890      1.80627685436038     -0.89014621124470
| 32> H          -4.06823478710533      0.95066483560844     -0.00049545748797
| 33> H          -0.55378818786793     -2.14712022161097     -0.00026564570615
| 34> H           1.97664868381534     -2.13630478054762     -0.00010007290271
| 35> F           3.39392859180167      0.02324511926514      0.00015796253828
| 36> H           1.94353444532030      2.15785345098842      0.00023004641097
| 37> H          -0.54990740943796      2.15466559936447      0.00005528060562
| 38> *
| 39>
| 40>                          ****END OF INPUT****

CARTESIAN COORDINATES (ANGSTROEM)
---------------------------------
  C     -0.011578    1.203529    0.000019
  C      1.379905    1.221915    0.000119
  C      2.065929    0.012524    0.000072
  C      1.397942   -1.209331   -0.000067
  C      0.010162   -1.210764   -0.000159
  C     -0.712280   -0.009326   -0.000123
  C     -2.205445   -0.091114   -0.000239
  O     -2.762380   -1.166976   -0.000317
  C     -2.996370    1.196273   -0.000280
  H     -2.762017    1.806080    0.889813
  H     -2.761681    1.806277   -0.890146
  H     -4.068235    0.950665   -0.000495
  H     -0.553788   -2.147120   -0.000266
  H      1.976649   -2.136305   -0.000100
  F      3.393929    0.023245    0.000158
  H      1.943534    2.157853    0.000230
  H     -0.549907    2.154666    0.000055

 Total Charge           Charge          ....    0
 Multiplicity           Mult            ....    1
 Number of Electrons    NEL             ....   72
 Basis Dimension        Dim             ....  621

ORBITAL ENERGIES
----------------

  NO   OCC          E(Eh)            E(eV)
   0   2.0000     -24.803095      -674.9265
   1   2.0000     -19.199593      -522.4475
   2   2.0000     -10.326713      -281.0041
   3   2.0000     -10.318586      -280.7830
   4   2.0000     -10.250047      -278.9179
   5   2.0000     -10.246231      -278.8141
   6   2.0000     -10.244444      -278.7655
   7   2.0000     -10.242870      -278.7227
   8   2.0000     -10.242785      -278.7204
   9   2.0000     -10.219762      -278.0939
  10   2.0000      -1.283488       -34.9255
  11   2.0000      -1.078569       -29.3494
  12   2.0000      -0.900170       -24.4949
  13   2.0000      -0.801407       -21.8074
  14   2.0000      -0.788133       -21.4462
  15   2.0000      -0.750361       -20.4184
  16   2.0000      -0.661232       -17.9930
  17   2.0000      -0.649490       -17.6735
  18   2.0000      -0.576902       -15.6983
  19   2.0000      -0.573797       -15.6138
  20   2.0000      -0.523922       -14.2566
  21   2.0000      -0.507048       -13.7975
  22   2.0000      -0.501986       -13.6597
  23   2.0000      -0.466500       -12.6941
  24   2.0000      -0.456307       -12.4168
  25   2.0000      -0.452226       -12.3057
  26   2.0000      -0.446813       -12.1584
  27   2.0000      -0.423581       -11.5262
  28   2.0000      -0.420015       -11.4292
  29   2.0000      -0.392286       -10.6746
  30   2.0000      -0.388115       -10.5611
  31   2.0000      -0.370260       -10.0753
  32   2.0000      -0.359361        -9.7787
  33   2.0000      -0.283716        -7.7203
  34   2.0000      -0.272110        -7.4045
  35   2.0000      -0.270331        -7.3561
  36   0.0000      -0.057676        -1.5694
  37   0.0000      -0.022866        -0.6222
  38   0.0000       0.001729         0.0470
  39   0.0000       0.014414         0.3922
  40   0.0000       0.018498         0.5034

MULLIKEN ATOMIC CHARGES
-----------------------
   0 C :   -0.509555
   1 C :   -0.890338
   2 C :    0.558188
   3 C :   -0.733229
   4 C :   -0.842533
   5 C :    1.117978
   6 C :    0.686499
   7 O :   -0.893866
   8 C :   -0.638982
   9 H :    0.294940
  10 H :    0.295350
  11 H :    0.189198
  12 H :    0.374314
  13 H :    0.557390
  14 F :   -0.473494
  15 H :    0.534412
  16 H :    0.373728
Sum of atomic charges:    0.0000000

LOEWDIN ATOMIC CHARGES
----------------------
   0 C :    0.198596
   1 C :    0.205815
   2 C :   -0.549586
   3 C :    0.202847
   4 C :    0.184828
   5 C :   -0.137717
   6 C :   -0.556769
   7 O :    0.488160
   8 C :    0.565540
   9 H :   -0.154955
  10 H :   -0.154999
  11 H :   -0.174883
  12 H :   -0.180365
  13 H :   -0.163017
  14 F :    0.556159
  15 H :   -0.161950
  16 H :   -0.167705

  Mayer bond orders larger than 0.100000
B(  0-C ,  1-C ) :   1.1162 B(  0-C ,  2-C ) :  -0.1844 B(  0-C ,  4-C ) :  -0.2469
B(  0-C ,  5-C ) :   0.6859 B(  0-C , 16-H ) :   0.8087 B(  1-C ,  2-C ) :   1.4532
B(  1-C ,  3-C ) :   0.2747 B(  1-C , 14-F ) :   0.2157 B(  1-C , 15-H ) :   0.3894
B(  2-C ,  3-C ) :   1.4505 B(  2-C ,  4-C ) :  -0.2579 B(  2-C , 14-F ) :   0.2984
B(  3-C ,  4-C ) :   1.4095 B(  3-C , 13-H ) :   0.3605 B(  3-C , 14-F ) :   0.2101
B(  4-C ,  5-C ) :   0.6070 B(  4-C ,  6-C ) :   0.1505 B(  4-C , 12-H ) :   0.7084
B(  5-C ,  6-C ) :   0.4531 B(  5-C ,  7-O ) :   0.1099 B(  6-C ,  7-O ) :   0.9154
B(  6-C ,  8-C ) :   0.9661 B(  7-O , 12-H ) :   0.1325 B(  8-C ,  9-H ) :   0.9038
B(  8-C , 10-H ) :   0.9038 B(  8-C , 11-H ) :   0.9600 B( 12-H , 16-H ) :   0.1042
B( 13-H , 14-F ) :   0.1308 B( 14-F , 15-H ) :   0.1172

Dispersion correction           -0.015319375
FINAL SINGLE POINT ENERGY      -483.792025648850

DIPOLE MOMENT
-------------

Method             : SCF
Type of density    : Electron Density
Multiplicity       :   1
Irrep              :   0
Energy             :  -483.7767062741300492 Eh
Relativity type    :
Basis              : AO
                                X                 Y                 Z
Electronic contribution:      9.898756799      -2.939924275       0.000967985
Nuclear contribution   :     -9.565763920       4.278558097      -0.000557353
                        -----------------------------------------
Total Dipole Moment    :      0.332992879       1.338633822       0.000410632
                        -----------------------------------------
Magnitude (a.u.)       :      1.379429207
Magnitude (Debye)      :      3.506230399

Rotational constants in cm-1:             0.122785             0.025820             0.021420
Rotational constants in MHz :          3680.997761           774.054545           642.159761

                             ****ORCA TERMINATED NORMALLY****
TOTAL RUN TIME: 0 days 0 hours 5 minutes 26 seconds 675 msec
