                         Program Version 6.0.0  -   RELEASE  -
|  1> !PBE0 def2-SV(p) Opt Freq d3 TightSCF SlowConv RIJCOSX defgrid2
|  2>
|  3> %pal
|  4> nprocs 4
|  5> end
|  6>
|  7> %scf
|  8> MaxIter 1500
|  9> end
| 10>
| 11> %maxcore 3000
| 12>
| 13>
| 14>
| 15> * xyz 0 1
| 16> C     0.9031453   -1.4115099    0.0000065
| 17> C     2.1070256   -0.7349507   -0.0000096
| 18> C     2.1601855    0.6610672   -0.0000104
| 19> C     1.0129777    1.4247103   -0.0000037
| 20> C    -0.2156624    0.7667143    0.0000046
| 21> C    -0.2513171   -0.6430175    0.0000053
| 22> O    -1.5359402   -1.0770544    0.0000148
| 23> C    -2.3137056    0.0345708    0.0000095
| 24> C    -1.5866237    1.1753241    0.0000165
| 25> H    -1.9607232    2.1781533    0.0000170
| 26> H    -3.3739628   -0.1295379    0.0000114
| 27> H     1.0570737    2.5029351    0.0000107
| 28> H     3.1245066    1.1468692   -0.0000043
| 29> H     3.0287422   -1.2965653   -0.0000010
| 30> H     0.8533285   -2.4887323    0.0000175
| 31> *
| 32>
| 33>                          ****END OF INPUT****
 Total Charge           Charge          ....    0
 Multiplicity           Mult            ....    1
 Number of Electrons    NEL             ....   62
Dispersion correction           -0.013743465
FINAL SINGLE POINT ENERGY      -382.956796106807
Dispersion correction             ... done (  0.1 sec)
Dispersion correction           -0.013712665
FINAL SINGLE POINT ENERGY      -382.958418233674
Dispersion correction             ... done (  0.1 sec)
Dispersion correction           -0.013707286
FINAL SINGLE POINT ENERGY      -382.958486240916
Dispersion correction             ... done (  0.0 sec)
Dispersion correction           -0.013704105
FINAL SINGLE POINT ENERGY      -382.958506455354
Dispersion correction             ... done (  0.0 sec)
Dispersion correction           -0.013704014
FINAL SINGLE POINT ENERGY      -382.958508414556
Dispersion correction             ... done (  0.0 sec)
                    ***********************HURRAY********************

CARTESIAN COORDINATES (ANGSTROEM)
---------------------------------
  C      0.896255   -1.415587    0.000002
  C      2.115054   -0.744310   -0.000001
  C      2.175420    0.661189    0.000001
  C      1.020733    1.434115    0.000007
  C     -0.219786    0.780243    0.000009
  C     -0.247345   -0.625876    0.000005
  O     -1.526015   -1.070324    0.000013
  C     -2.318270    0.029527    0.000021
  C     -1.602154    1.182939    0.000003
  H     -2.002513    2.195371   -0.000004
  H     -3.388777   -0.169313    0.000029
  H      1.077674    2.526214    0.000007
  H      3.153043    1.151829   -0.000004
  H      3.044411   -1.321167   -0.000006
  H      0.831320   -2.505874    0.000002

 Multiplicity           Mult            ....    1
 Number of Electrons    NEL             ....   62
 Basis Dimension        Dim             ....  138

ORBITAL ENERGIES
----------------

  NO   OCC          E(Eh)            E(eV)
   0   2.0000     -19.281351      -524.6722
   1   2.0000     -10.293400      -280.0976
   2   2.0000     -10.290898      -280.0296
   3   2.0000     -10.244594      -278.7696
   4   2.0000     -10.241812      -278.6939
   5   2.0000     -10.241154      -278.6760
   6   2.0000     -10.239240      -278.6239
   7   2.0000     -10.238862      -278.6136
   8   2.0000     -10.235751      -278.5290
   9   2.0000      -1.143241       -31.1092
  10   2.0000      -0.878852       -23.9148
  11   2.0000      -0.821097       -22.3432
  12   2.0000      -0.769773       -20.9466
  13   2.0000      -0.748096       -20.3567
  14   2.0000      -0.655016       -17.8239
  15   2.0000      -0.620766       -16.8919
  16   2.0000      -0.601329       -16.3630
  17   2.0000      -0.541642       -14.7388
  18   2.0000      -0.513153       -13.9636
  19   2.0000      -0.497674       -13.5424
  20   2.0000      -0.484196       -13.1756
  21   2.0000      -0.456619       -12.4252
  22   2.0000      -0.442909       -12.0522
  23   2.0000      -0.425981       -11.5915
  24   2.0000      -0.406091       -11.0503
  25   2.0000      -0.381820       -10.3898
  26   2.0000      -0.372111       -10.1257
  27   2.0000      -0.355472        -9.6729
  28   2.0000      -0.312954        -8.5159
  29   2.0000      -0.255649        -6.9566
  30   2.0000      -0.238044        -6.4775
  31   0.0000      -0.021703        -0.5906
  32   0.0000       0.011940         0.3249
  33   0.0000       0.054849         1.4925
  34   0.0000       0.077726         2.1150
  35   0.0000       0.098908         2.6914

MULLIKEN ATOMIC CHARGES
-----------------------
   0 C :   -0.161056
   1 C :   -0.111204
   2 C :   -0.090528
   3 C :   -0.155246
   4 C :    0.063336
   5 C :    0.190718
   6 O :   -0.244381
   7 C :    0.064058
   8 C :   -0.160099
   9 H :    0.101999
  10 H :    0.122034
  11 H :    0.088151
  12 H :    0.095943
  13 H :    0.101217
  14 H :    0.095058
Sum of atomic charges:    0.0000000

LOEWDIN ATOMIC CHARGES
----------------------
   0 C :   -0.143438
   1 C :   -0.130409
   2 C :   -0.139402
   3 C :   -0.122061
   4 C :   -0.062320
   5 C :    0.035934
   6 O :   -0.014889
   7 C :   -0.044418
   8 C :   -0.181444
   9 H :    0.139621
  10 H :    0.132189
  11 H :    0.130907
  12 H :    0.129510
  13 H :    0.130705
  14 H :    0.139515

  Mayer bond orders larger than 0.100000
B(  0-C ,  1-C ) :   1.4046 B(  0-C ,  3-C ) :   0.1022 B(  0-C ,  5-C ) :   1.3584
B(  0-C , 14-H ) :   0.9713 B(  1-C ,  2-C ) :   1.3511 B(  1-C , 13-H ) :   0.9611
B(  2-C ,  3-C ) :   1.4413 B(  2-C , 12-H ) :   0.9619 B(  3-C ,  4-C ) :   1.3099
B(  3-C , 11-H ) :   0.9700 B(  4-C ,  5-C ) :   1.2956 B(  4-C ,  8-C ) :   1.1568
B(  5-C ,  6-O ) :   1.0916 B(  6-O ,  7-C ) :   1.0956 B(  7-C ,  8-C ) :   1.5955
B(  7-C , 10-H ) :   0.9715 B(  8-C ,  9-H ) :   0.9754

Dispersion correction           -0.013704299
FINAL SINGLE POINT ENERGY      -382.958509223731

DIPOLE MOMENT
-------------

Method             : SCF
Type of density    : Electron Density
Multiplicity       :   1
Irrep              :   0
Energy             :  -382.9448049247644690 Eh
Relativity type    :
Basis              : AO
                                X                 Y                 Z
Electronic contribution:     -2.642151100      -1.488097912       0.000014627
Nuclear contribution   :      2.516077808       1.725635815      -0.000014921
                        -----------------------------------------
Total Dipole Moment    :     -0.126073292       0.237537903      -0.000000295
                        -----------------------------------------
Magnitude (a.u.)       :      0.268921420
Magnitude (Debye)      :      0.683543928

VIBRATIONAL FREQUENCIES
-----------------------

Scaling factor for frequencies =  1.000000000  (already applied!)

     0:       0.00 cm**-1
     1:       0.00 cm**-1
     2:       0.00 cm**-1
     3:       0.00 cm**-1
     4:       0.00 cm**-1
     5:       0.00 cm**-1
     6:     222.44 cm**-1
     7:     257.56 cm**-1
     8:     413.10 cm**-1
     9:     438.67 cm**-1
    10:     550.28 cm**-1
    11:     593.03 cm**-1
    12:     610.69 cm**-1
    13:     623.05 cm**-1
    14:     758.11 cm**-1
    15:     773.19 cm**-1
    16:     791.26 cm**-1
    17:     800.26 cm**-1
    18:     879.24 cm**-1
    19:     881.43 cm**-1
    20:     894.39 cm**-1
    21:     918.59 cm**-1
    22:     963.05 cm**-1
    23:    1005.02 cm**-1
    24:    1042.96 cm**-1
    25:    1075.01 cm**-1
    26:    1129.20 cm**-1
    27:    1162.52 cm**-1
    28:    1181.77 cm**-1
    29:    1224.78 cm**-1
    30:    1291.79 cm**-1
    31:    1320.79 cm**-1
    32:    1384.27 cm**-1
    33:    1443.37 cm**-1
    34:    1510.43 cm**-1
    35:    1535.04 cm**-1
    36:    1613.23 cm**-1
    37:    1676.85 cm**-1
    38:    1709.30 cm**-1
    39:    3198.12 cm**-1
    40:    3209.60 cm**-1
    41:    3219.97 cm**-1
    42:    3232.13 cm**-1
    43:    3271.35 cm**-1
    44:    3296.60 cm**-1

IR SPECTRUM
-----------

 Mode   freq       eps      Int      T**2         TX        TY        TZ
       cm**-1   L/(mol*cm) km/mol    a.u.
----------------------------------------------------------------------------
  6:    222.44   0.001079    5.45  0.001514  ( 0.000000 -0.000001 -0.038908)
  7:    257.56   0.000043    0.22  0.000052  (-0.000000  0.000000 -0.007214)
  8:    413.10   0.000975    4.93  0.000736  (-0.014093 -0.023191 -0.000001)
  9:    438.67   0.001544    7.80  0.001098  (-0.000000  0.000000  0.033140)
 10:    550.28   0.000051    0.26  0.000029  ( 0.003558  0.004005  0.000000)
 11:    593.03   0.000043    0.22  0.000023  ( 0.000000  0.000000 -0.004762)
 12:    610.69   0.000033    0.17  0.000017  (-0.000000  0.000000  0.004113)
 13:    623.05   0.000209    1.06  0.000105  ( 0.010112 -0.001590  0.000000)
 14:    758.11   0.000286    1.45  0.000118  ( 0.000001  0.000000  0.010853)
 15:    773.19   0.019337   97.72  0.007805  (-0.000001 -0.000000  0.088343)
 16:    791.26   0.000983    4.97  0.000388  ( 0.017423 -0.009170  0.000000)
 17:    800.26   0.000999    5.05  0.000389  (-0.000002  0.000002 -0.019735)
 18:    879.24   0.001549    7.83  0.000550  ( 0.014451  0.018463 -0.000000)
 19:    881.43   0.000002    0.01  0.000001  (-0.000000  0.000000  0.000832)
 20:    894.39   0.000095    0.48  0.000033  (-0.000001  0.000000 -0.005750)
 21:    918.59   0.000642    3.24  0.000218  (-0.001760  0.014660 -0.000000)
 22:    963.05   0.000346    1.75  0.000112  ( 0.000000  0.000000  0.010586)
 23:   1005.02   0.000000    0.00  0.000000  (-0.000000  0.000000 -0.000324)
 24:   1042.96   0.001116    5.64  0.000334  (-0.017627  0.004821  0.000000)
 25:   1075.01   0.001614    8.16  0.000469  (-0.009869 -0.019267  0.000000)
 26:   1129.20   0.001968    9.94  0.000544  (-0.009657 -0.021227 -0.000000)
 27:   1162.52   0.000695    3.51  0.000186  ( 0.002750 -0.013375 -0.000000)
 28:   1181.77   0.003290   16.63  0.000869  (-0.001432  0.029440 -0.000000)
 29:   1224.78   0.006098   30.81  0.001554  ( 0.024984 -0.030486 -0.000000)
 30:   1291.79   0.000153    0.77  0.000037  ( 0.003857 -0.004687 -0.000000)
 31:   1320.79   0.006247   31.57  0.001476  (-0.037952  0.005978  0.000000)
 32:   1384.27   0.001477    7.46  0.000333  (-0.016017 -0.008740  0.000000)
 33:   1443.37   0.000913    4.61  0.000197  ( 0.013965 -0.001519 -0.000000)
 34:   1510.43   0.008244   41.66  0.001703  (-0.037349 -0.017559  0.000000)
 35:   1535.04   0.000797    4.03  0.000162  ( 0.004612 -0.011862  0.000000)
 36:   1613.23   0.003157   15.96  0.000611  (-0.005027 -0.024196  0.000000)
 37:   1676.85   0.000074    0.38  0.000014  (-0.003243  0.001825 -0.000000)
 38:   1709.30   0.000065    0.33  0.000012  (-0.003370  0.000677  0.000000)
 39:   3198.12   0.000117    0.59  0.000011  (-0.003161 -0.001185  0.000000)
 40:   3209.60   0.001304    6.59  0.000127  (-0.005712  0.009705  0.000000)
 41:   3219.97   0.002364   11.95  0.000229  ( 0.011600  0.009725  0.000000)
 42:   3232.13   0.000645    3.26  0.000062  (-0.005767  0.005390  0.000000)
 43:   3271.35   0.000188    0.95  0.000018  ( 0.004142  0.000882  0.000000)
 44:   3296.60   0.000034    0.17  0.000003  ( 0.001408 -0.001120 -0.000000)

--------------------------
THERMOCHEMISTRY AT 298.15K
--------------------------

Temperature         ...   298.15 K
Pressure            ...     1.00 atm
Total Mass          ...   118.13 AMU
Quasi RRHO          ...     True
Cut-Off Frequency   ...     1.00 cm^-1

Throughout the following assumptions are being made:
  (1) The electronic state is orbitally nondegenerate
  (2) There are no thermally accessible electronically excited states
  (3) Hindered rotations indicated by low frequency modes are not
      treated as such but are treated as vibrations and this may
      cause some error
  (4) All equations used are the standard statistical mechanics
      equations for an ideal gas
  (5) All vibrations are strictly harmonic

freq.     222.44  E(vib)   ...       0.33
freq.     257.56  E(vib)   ...       0.30
freq.     413.10  E(vib)   ...       0.19
freq.     438.67  E(vib)   ...       0.17
freq.     550.28  E(vib)   ...       0.12
freq.     593.03  E(vib)   ...       0.10
freq.     610.69  E(vib)   ...       0.10
freq.     623.05  E(vib)   ...       0.09
freq.     758.11  E(vib)   ...       0.06
freq.     773.19  E(vib)   ...       0.05
freq.     791.26  E(vib)   ...       0.05
freq.     800.26  E(vib)   ...       0.05
freq.     879.24  E(vib)   ...       0.04
freq.     881.43  E(vib)   ...       0.04
freq.     894.39  E(vib)   ...       0.03
freq.     918.59  E(vib)   ...       0.03
freq.     963.05  E(vib)   ...       0.03
freq.    1005.02  E(vib)   ...       0.02
freq.    1042.96  E(vib)   ...       0.02
freq.    1075.01  E(vib)   ...       0.02
freq.    1129.20  E(vib)   ...       0.01
freq.    1162.52  E(vib)   ...       0.01
freq.    1181.77  E(vib)   ...       0.01
freq.    1224.78  E(vib)   ...       0.01
freq.    1291.79  E(vib)   ...       0.01
freq.    1320.79  E(vib)   ...       0.01
freq.    1384.27  E(vib)   ...       0.00
freq.    1443.37  E(vib)   ...       0.00
freq.    1510.43  E(vib)   ...       0.00
freq.    1535.04  E(vib)   ...       0.00
freq.    1613.23  E(vib)   ...       0.00
freq.    1676.85  E(vib)   ...       0.00
freq.    1709.30  E(vib)   ...       0.00
freq.    3198.12  E(vib)   ...       0.00
freq.    3209.60  E(vib)   ...       0.00
freq.    3219.97  E(vib)   ...       0.00
freq.    3232.13  E(vib)   ...       0.00
freq.    3271.35  E(vib)   ...       0.00
freq.    3296.60  E(vib)   ...       0.00

------------
INNER ENERGY
------------

The inner energy is: U= E(el) + E(ZPE) + E(vib) + E(rot) + E(trans)
    E(el)   - is the total energy from the electronic structure calculation
              = E(kin-el) + E(nuc-el) + E(el-el) + E(nuc-nuc)
    E(ZPE)  - the the zero temperature vibrational energy from the frequency calculation
    E(vib)  - the the finite temperature correction to E(ZPE) due to population
              of excited vibrational states
    E(rot)  - is the rotational thermal energy
    E(trans)- is the translational thermal energy

Summary of contributions to the inner energy U:
Electronic energy                ...   -382.95850922 Eh
Zero point energy                ...      0.11869808 Eh      74.48 kcal/mol
Thermal vibrational correction   ...      0.00305173 Eh       1.91 kcal/mol
Thermal rotational correction    ...      0.00141627 Eh       0.89 kcal/mol
Thermal translational correction ...      0.00141627 Eh       0.89 kcal/mol
-----------------------------------------------------------------------
Total thermal energy                   -382.83392687 Eh

Summary of corrections to the electronic energy:
(perhaps to be used in another calculation)
Total thermal correction                  0.00588427 Eh       3.69 kcal/mol
Non-thermal (ZPE) correction              0.11869808 Eh      74.48 kcal/mol
-----------------------------------------------------------------------
Total correction                          0.12458235 Eh      78.18 kcal/mol

--------
ENTHALPY
--------

The enthalpy is H = U + kB*T
                kB is Boltzmann's constant
Total thermal energy              ...   -382.83392687 Eh
Thermal Enthalpy correction       ...      0.00094421 Eh       0.59 kcal/mol
-----------------------------------------------------------------------
Total Enthalpy                    ...   -382.83298266 Eh

Note: Rotational entropy computed according to Herzberg
Infrared and Raman Spectra, Chapter V,1, Van Nostrand Reinhold, 1945
Point Group:  Cs, Symmetry Number:   1
Rotational constants in cm-1:     0.131103     0.055537     0.039011

Vibrational entropy computed according to the QRRHO of S. Grimme
Chem.Eur.J. 2012 18 9955 using a reference frequency of 100.0 cm-1

-------
ENTROPY
-------

The entropy contributions are T*S = T*(S(el)+S(vib)+S(rot)+S(trans))
     S(el)   - electronic entropy
     S(vib)  - vibrational entropy
     S(rot)  - rotational entropy
     S(trans)- translational entropy
The entropies will be listed as multiplied by the temperature to get
units of energy

Electronic entropy                ...      0.00000000 Eh      0.00 kcal/mol
Vibrational entropy               ...      0.00444727 Eh      2.79 kcal/mol
Rotational entropy                ...      0.01336608 Eh      8.39 kcal/mol
Translational entropy             ...      0.01910727 Eh     11.99 kcal/mol
-----------------------------------------------------------------------
Final entropy term                ...      0.03692062 Eh     23.17 kcal/mol

In case the symmetry of your molecule has not been determined correctly
or in case you have a reason to use a different symmetry number we print
out the resulting rotational entropy values for sn=1,12:

 non-linear molecules -----------------------------------
|  sn= 1 | S(rot)=       0.01336608 Eh      8.39 kcal/mol|
|  sn= 2 | S(rot)=       0.01271163 Eh      7.98 kcal/mol|
|  sn= 3 | S(rot)=       0.01232879 Eh      7.74 kcal/mol|
|  sn= 4 | S(rot)=       0.01205717 Eh      7.57 kcal/mol|
|  sn= 5 | S(rot)=       0.01184648 Eh      7.43 kcal/mol|
|  sn= 6 | S(rot)=       0.01167434 Eh      7.33 kcal/mol|
|  sn= 7 | S(rot)=       0.01152879 Eh      7.23 kcal/mol|
|  sn= 8 | S(rot)=       0.01140271 Eh      7.16 kcal/mol|
|  sn= 9 | S(rot)=       0.01129150 Eh      7.09 kcal/mol|
|  sn=10 | S(rot)=       0.01119203 Eh      7.02 kcal/mol|
|  sn=11 | S(rot)=       0.01110204 Eh      6.97 kcal/mol|
|  sn=12 | S(rot)=       0.01101988 Eh      6.92 kcal/mol|
 linear molecules ---------------------------------------
|  Dinfh | S(rot)=       0.00838864 Eh      5.26 kcal/mol|
|  Cinfv | S(rot)=       0.00904310 Eh      5.67 kcal/mol|
 --------------------------------------------------------

-------------------
GIBBS FREE ENERGY
-------------------

The Gibbs free energy is G = H - T*S

Total enthalpy                    ...   -382.83298266 Eh
Total entropy correction          ...     -0.03692062 Eh    -23.17 kcal/mol

                             ****ORCA TERMINATED NORMALLY****
TOTAL RUN TIME: 0 days 0 hours 7 minutes 45 seconds 797 msec
