                         Program Version 6.0.0  -   RELEASE  -
|  1> !B3LYP opt aug-cc-pVTZ d3 TightSCF SlowConv RIJCOSX defgrid2
|  2>
|  3> %pal
|  4> nprocs 8
|  5> end
|  6>
|  7> %scf
|  8> MaxIter 1500
|  9> end
| 10>
| 11> %maxcore 3500
| 12>
| 13> !CPCM
| 14> %cpcm smd true
| 15> SMDsolvent "MeCN"
| 16> surfacetype gepol_ses
| 17> rsolv 2.19
| 18> end
| 19>
| 20> * xyz 0 1
| 21> C          -0.22997754219743     -1.20609091856311     -0.00046087004095
| 22> C           1.16128384069195     -1.20031253591911      0.00041394587123
| 23> C           1.87254503831811     -0.00003037040882      0.00072012391754
| 24> C           1.16131377140118      1.20026930808148      0.00041360790641
| 25> C          -0.22994707632405      1.20608173416170     -0.00046177829750
| 26> C          -0.95218511536342      0.00000427823419     -0.00003761551285
| 27> N          -2.33340895991450      0.00002157595282      0.04653779431621
| 28> H          -2.79855452143895      0.84821355690402     -0.25483389378867
| 29> H          -2.79857532928795     -0.84816111010491     -0.25482834496791
| 30> H          -0.77344381556999      2.15676174884881      0.00298430668171
| 31> H           1.69817818740019      2.15419904894576     -0.00079679497611
| 32> H           2.96571339060225     -0.00004426352233      0.00028554339021
| 33> H           1.69812535441562     -2.15425546581862     -0.00079688995407
| 34> H          -0.77349762273302     -2.15675758679187      0.00298456545474
| 35> *
| 36>
| 37>                          ****END OF INPUT****
 Total Charge           Charge          ....    0
 Multiplicity           Mult            ....    1
 Number of Electrons    NEL             ....   50
Dispersion correction           -0.022803413
FINAL SINGLE POINT ENERGY      -287.568791301741
Dispersion correction             ... done (  0.0 sec)
Dispersion correction           -0.022860279
FINAL SINGLE POINT ENERGY      -287.569360988589
Dispersion correction             ... done (  0.1 sec)
Dispersion correction           -0.022865435
FINAL SINGLE POINT ENERGY      -287.569382986187
Dispersion correction             ... done (  0.1 sec)
Dispersion correction           -0.022871054
FINAL SINGLE POINT ENERGY      -287.569409309805
Dispersion correction             ... done (  0.1 sec)
Dispersion correction           -0.022871269
FINAL SINGLE POINT ENERGY      -287.569411041472
Dispersion correction             ... done (  0.1 sec)
                    ***********************HURRAY********************

CARTESIAN COORDINATES (ANGSTROEM)
---------------------------------
  C     -0.229382   -1.204792    0.003966
  C      1.158793   -1.198920    0.000490
  C      1.866925   -0.000030   -0.000109
  C      1.158821    1.198876    0.000490
  C     -0.229353    1.204783    0.003966
  C     -0.944935    0.000004    0.006835
  N     -2.333849    0.000021    0.069671
  H     -2.784563    0.836276   -0.269567
  H     -2.784583   -0.836223   -0.269564
  H     -0.769637    2.143186    0.004091
  H      1.690506    2.141558   -0.004097
  H      2.948065   -0.000044   -0.004044
  H      1.690452   -2.141616   -0.004100
  H     -0.769689   -2.143180    0.004096

 Multiplicity           Mult            ....    1
 Number of Electrons    NEL             ....   50
 Basis Dimension        Dim             ....  483

ORBITAL ENERGIES
----------------

  NO   OCC          E(Eh)            E(eV)
   0   2.0000     -14.314269      -389.5111
   1   2.0000     -10.212702      -277.9017
   2   2.0000     -10.170701      -276.7589
   3   2.0000     -10.170678      -276.7582
   4   2.0000     -10.164604      -276.5929
   5   2.0000     -10.164593      -276.5926
   6   2.0000     -10.160834      -276.4904
   7   2.0000      -0.915253       -24.9053
   8   2.0000      -0.835579       -22.7373
   9   2.0000      -0.742551       -20.2058
  10   2.0000      -0.722501       -19.6603
  11   2.0000      -0.608394       -16.5553
  12   2.0000      -0.594268       -16.1709
  13   2.0000      -0.520944       -14.1756
  14   2.0000      -0.500284       -13.6134
  15   2.0000      -0.472295       -12.8518
  16   2.0000      -0.427898       -11.6437
  17   2.0000      -0.423641       -11.5279
  18   2.0000      -0.413420       -11.2497
  19   2.0000      -0.386913       -10.5284
  20   2.0000      -0.354393        -9.6435
  21   2.0000      -0.336121        -9.1463
  22   2.0000      -0.314592        -8.5605
  23   2.0000      -0.254772        -6.9327
  24   2.0000      -0.208874        -5.6838
  25   0.0000      -0.011680        -0.3178
  26   0.0000      -0.003407        -0.0927
  27   0.0000       0.001878         0.0511
  28   0.0000       0.009439         0.2568
  29   0.0000       0.014485         0.3942

MULLIKEN ATOMIC CHARGES
-----------------------
   0 C :   -0.887586
   1 C :   -0.326254
   2 C :   -0.552762
   3 C :   -0.326449
   4 C :   -0.887128
   5 C :    1.286094
   6 N :   -0.598680
   7 H :    0.050211
   8 H :    0.050364
   9 H :    0.481875
  10 H :    0.366459
  11 H :    0.495276
  12 H :    0.366741
  13 H :    0.481838
Sum of atomic charges:    0.0000000

LOEWDIN ATOMIC CHARGES
----------------------
   0 C :    0.201968
   1 C :    0.166383
   2 C :    0.167212
   3 C :    0.166381
   4 C :    0.201968
   5 C :   -0.264526
   6 N :    0.854780
   7 H :   -0.293280
   8 H :   -0.293280
   9 H :   -0.176890
  10 H :   -0.181383
  11 H :   -0.191058
  12 H :   -0.181382
  13 H :   -0.176893

  Mayer bond orders larger than 0.100000
B(  0-C ,  1-C ) :   1.1886 B(  0-C ,  2-C ) :   0.2512 B(  0-C ,  4-C ) :   0.4568
B(  0-C ,  5-C ) :   0.7115 B(  0-C , 13-H ) :   0.4274 B(  1-C ,  2-C ) :   1.1459
B(  1-C ,  3-C ) :  -0.1052 B(  1-C ,  5-C ) :  -0.2505 B(  1-C , 12-H ) :   0.8263
B(  2-C ,  3-C ) :   1.1457 B(  2-C ,  4-C ) :   0.2511 B(  2-C , 11-H ) :   0.5739
B(  3-C ,  4-C ) :   1.1873 B(  3-C ,  5-C ) :  -0.2507 B(  3-C , 10-H ) :   0.8266
B(  4-C ,  5-C ) :   0.7128 B(  4-C ,  9-H ) :   0.4268 B(  5-C ,  6-N ) :   0.5093
B(  6-N ,  7-H ) :   1.0838 B(  6-N ,  8-H ) :   1.0836

Dispersion correction           -0.022870200
FINAL SINGLE POINT ENERGY      -287.569413516080

DIPOLE MOMENT
-------------

Method             : SCF
Type of density    : Electron Density
Multiplicity       :   1
Irrep              :   0
Energy             :  -287.5465433162682984 Eh
Relativity type    :
Basis              : AO
                                X                 Y                 Z
Electronic contribution:     -0.003755746      -0.000000385       0.048250696
Nuclear contribution   :     -0.738827725       0.000008526      -0.552707494
                        -----------------------------------------
Total Dipole Moment    :     -0.742583471       0.000008141      -0.504456798
                        -----------------------------------------
Magnitude (a.u.)       :      0.897723160
Magnitude (Debye)      :      2.281830934

Rotational constants in cm-1:             0.188312             0.086912             0.059553
Rotational constants in MHz :          5645.449830          2605.553043          1785.367624

                             ****ORCA TERMINATED NORMALLY****
TOTAL RUN TIME: 0 days 0 hours 14 minutes 20 seconds 908 msec
