                         Program Version 6.0.0  -   RELEASE  -
|  1> !B3LYP aug-cc-pVTZ d3 TightSCF SlowConv RIJCOSX defgrid2
|  2>
|  3> %pal
|  4> nprocs 15
|  5> end
|  6>
|  7> %scf
|  8> MaxIter 1500
|  9> end
| 10>
| 11> %maxcore 3500
| 12>
| 13> !CPCM
| 14> %cpcm smd true
| 15> SMDsolvent "WATER"
| 16> surfacetype gepol_ses
| 17> rsolv 1.40
| 18> end
| 19>
| 20> * xyz 0 1
| 21> C           0.05740703362366     -0.03818478987782     -0.05305252362433
| 22> C           0.04752787284548      1.43042672917474      0.09288134793546
| 23> C           0.00865823360556      2.06419843064535      1.28313969477442
| 24> C          -0.02631367755515      1.27331877582174      2.55115567713606
| 25> C          -0.01924382659142     -0.21029957823671      2.44828393846160
| 26> C           0.02139111377803     -0.84476466741681      1.19738932390815
| 27> C           0.02778920782920     -2.23769356254970      1.12126987378335
| 28> C          -0.00634981044020     -2.99663523812184      2.28791660064124
| 29> C          -0.04698344076028     -2.36584188207955      3.53454063211562
| 30> C          -0.05333228207351     -0.97623991811648      3.61522849103236
| 31> H           0.07423269005991      1.98647405476100     -0.84970518486997
| 32> H          -0.08462573760684     -0.45717520913165      4.57653406994510
| 33> H          -0.07388405763115     -2.96530465276422      4.44922462797787
| 34> H          -0.00147351819034     -4.08899982107002      2.22872595641621
| 35> H           0.05990452710164     -2.70205720690776      0.13238845062488
| 36> C          -0.00206079517557      3.54702899649423      1.43475658835013
| 37> H          -0.90223963443982      3.87118144099815      1.98551534688661
| 38> H           0.85990766484548      3.87826240212472      2.03977796655726
| 39> H           0.02634952855796      4.05066472850984      0.45627956358589
| 40> O          -0.05966185780097      1.83961965072649      3.62552534412724
| 41> O           0.09300076601833     -0.55701475298369     -1.15202852476517
| 42> *
| 43>
| 44>                          ****END OF INPUT****

CARTESIAN COORDINATES (ANGSTROEM)
---------------------------------
  C      0.057407   -0.038185   -0.053053
  C      0.047528    1.430427    0.092881
  C      0.008658    2.064198    1.283140
  C     -0.026314    1.273319    2.551156
  C     -0.019244   -0.210300    2.448284
  C      0.021391   -0.844765    1.197389
  C      0.027789   -2.237694    1.121270
  C     -0.006350   -2.996635    2.287917
  C     -0.046983   -2.365842    3.534541
  C     -0.053332   -0.976240    3.615228
  H      0.074233    1.986474   -0.849705
  H     -0.084626   -0.457175    4.576534
  H     -0.073884   -2.965305    4.449225
  H     -0.001474   -4.089000    2.228726
  H      0.059905   -2.702057    0.132388
  C     -0.002061    3.547029    1.434757
  H     -0.902240    3.871181    1.985515
  H      0.859908    3.878262    2.039778
  H      0.026350    4.050665    0.456280
  O     -0.059662    1.839620    3.625525
  O      0.093001   -0.557015   -1.152029

 Total Charge           Charge          ....    0
 Multiplicity           Mult            ....    1
 Number of Electrons    NEL             ....   90
 Basis Dimension        Dim             ....  782

ORBITAL ENERGIES
----------------

  NO   OCC          E(Eh)            E(eV)
   0   2.0000     -19.138205      -520.7770
   1   2.0000     -19.135754      -520.7103
   2   2.0000     -10.280135      -279.7367
   3   2.0000     -10.278511      -279.6925
   4   2.0000     -10.215059      -277.9659
   5   2.0000     -10.201700      -277.6024
   6   2.0000     -10.200863      -277.5796
   7   2.0000     -10.197326      -277.4834
   8   2.0000     -10.192810      -277.3605
   9   2.0000     -10.192630      -277.3556
  10   2.0000     -10.192107      -277.3413
  11   2.0000     -10.191737      -277.3313
  12   2.0000     -10.171588      -276.7830
  13   2.0000      -1.067606       -29.0510
  14   2.0000      -1.064214       -28.9587
  15   2.0000      -0.881284       -23.9809
  16   2.0000      -0.837083       -22.7782
  17   2.0000      -0.775548       -21.1037
  18   2.0000      -0.768875       -20.9222
  19   2.0000      -0.719417       -19.5763
  20   2.0000      -0.675469       -18.3805
  21   2.0000      -0.637308       -17.3420
  22   2.0000      -0.612682       -16.6719
  23   2.0000      -0.578516       -15.7422
  24   2.0000      -0.537694       -14.6314
  25   2.0000      -0.519157       -14.1270
  26   2.0000      -0.494868       -13.4660
  27   2.0000      -0.467397       -12.7185
  28   2.0000      -0.461574       -12.5601
  29   2.0000      -0.454415       -12.3653
  30   2.0000      -0.448327       -12.1996
  31   2.0000      -0.439937       -11.9713
  32   2.0000      -0.422408       -11.4943
  33   2.0000      -0.419738       -11.4216
  34   2.0000      -0.405973       -11.0471
  35   2.0000      -0.402063       -10.9407
  36   2.0000      -0.385924       -10.5015
  37   2.0000      -0.371703       -10.1146
  38   2.0000      -0.369729       -10.0608
  39   2.0000      -0.358342        -9.7510
  40   2.0000      -0.292659        -7.9637
  41   2.0000      -0.287087        -7.8120
  42   2.0000      -0.272513        -7.4155
  43   2.0000      -0.271534        -7.3888
  44   2.0000      -0.269434        -7.3317
  45   0.0000      -0.119404        -3.2491
  46   0.0000      -0.049364        -1.3433
  47   0.0000      -0.023961        -0.6520
  48   0.0000      -0.002982        -0.0812
  49   0.0000       0.006941         0.1889

MULLIKEN ATOMIC CHARGES
-----------------------
   0 C :    1.245917
   1 C :   -0.628991
   2 C :    0.345198
   3 C :    0.875949
   4 C :    1.438866
   5 C :    1.044294
   6 C :   -1.185900
   7 C :   -0.398597
   8 C :   -0.377131
   9 C :   -1.422103
  10 H :    0.211609
  11 H :    0.064780
  12 H :    0.628240
  13 H :    0.573163
  14 H :    0.035755
  15 C :   -0.778339
  16 H :    0.234344
  17 H :    0.232220
  18 H :    0.191432
  19 O :   -1.166312
  20 O :   -1.164395
Sum of atomic charges:    0.0000000

LOEWDIN ATOMIC CHARGES
----------------------
   0 C :   -0.549521
   1 C :    0.250625
   2 C :   -0.098224
   3 C :   -0.516469
   4 C :   -0.114321
   5 C :   -0.120544
   6 C :    0.218556
   7 C :    0.225363
   8 C :    0.225485
   9 C :    0.219383
  10 H :   -0.161384
  11 H :   -0.171814
  12 H :   -0.156997
  13 H :   -0.156848
  14 H :   -0.171389
  15 C :    0.564010
  16 H :   -0.151856
  17 H :   -0.152009
  18 H :   -0.155972
  19 O :    0.503687
  20 O :    0.470238

  Mayer bond orders larger than 0.100000
B(  0-C ,  1-C ) :   0.6072 B(  0-C ,  5-C ) :   0.2033 B(  0-C ,  6-C ) :   0.5543
B(  0-C ,  8-C ) :   0.1082 B(  0-C ,  9-C ) :  -0.1352 B(  0-C , 10-H ) :  -0.2214
B(  0-C , 15-C ) :  -0.1036 B(  0-C , 20-O ) :  -0.1242 B(  1-C ,  2-C ) :   1.4185
B(  1-C ,  3-C ) :  -0.1551 B(  1-C ,  4-C ) :  -0.1221 B(  1-C ,  5-C ) :   0.3106
B(  1-C , 10-H ) :   0.8021 B(  1-C , 15-C ) :  -0.2652 B(  1-C , 20-O ) :   0.2396
B(  2-C ,  3-C ) :   0.5502 B(  2-C ,  4-C ) :   0.5324 B(  2-C ,  5-C ) :  -0.2053
B(  2-C , 15-C ) :   0.5285 B(  2-C , 16-H ) :  -0.1039 B(  2-C , 17-H ) :  -0.1009
B(  2-C , 19-O ) :   0.1604 B(  2-C , 20-O ) :   0.1338 B(  3-C ,  4-C ) :   0.3084
B(  3-C ,  5-C ) :   0.1587 B(  3-C ,  6-C ) :  -0.1817 B(  3-C ,  9-C ) :   0.6469
B(  3-C , 15-C ) :   0.2501 B(  3-C , 19-O ) :   0.1779 B(  4-C ,  5-C ) :   1.0602
B(  4-C ,  6-C ) :  -0.6015 B(  4-C ,  7-C ) :  -0.2040 B(  4-C ,  9-C ) :  -0.3647
B(  4-C , 11-H ) :  -0.1301 B(  5-C ,  6-C ) :   0.1095 B(  5-C ,  9-C ) :  -0.2829
B(  5-C , 10-H ) :   0.1223 B(  5-C , 14-H ) :  -0.1233 B(  5-C , 20-O ) :   0.2115
B(  6-C ,  7-C ) :   1.1118 B(  6-C ,  9-C ) :   0.1444 B(  6-C , 13-H ) :  -0.1826
B(  6-C , 14-H ) :   1.2697 B(  7-C ,  8-C ) :   1.1597 B(  7-C , 13-H ) :   0.4242
B(  8-C ,  9-C ) :   1.1594 B(  8-C , 12-H ) :   0.3439 B(  9-C , 11-H ) :   1.1748
B(  9-C , 12-H ) :  -0.1832 B(  9-C , 19-O ) :   0.1328 B( 10-H , 20-O ) :   0.1383
B( 11-H , 19-O ) :   0.2682 B( 14-H , 20-O ) :   0.2488 B( 15-C , 16-H ) :   0.9676
B( 15-C , 17-H ) :   0.9697 B( 15-C , 18-H ) :   1.0228

Dispersion correction           -0.044555627
FINAL SINGLE POINT ENERGY      -574.365193643827

DIPOLE MOMENT
-------------

Method             : SCF
Type of density    : Electron Density
Multiplicity       :   1
Irrep              :   0
Energy             :  -574.3206380170620378 Eh
Relativity type    :
Basis              : AO
                                X                 Y                 Z
Electronic contribution:      0.045139809      -3.312119050      -0.921370750
Nuclear contribution   :     -0.064708602       3.027549454       1.475829711
                        -----------------------------------------
Total Dipole Moment    :     -0.019568792      -0.284569596       0.554458961
                        -----------------------------------------
Magnitude (a.u.)       :      0.623528293
Magnitude (Debye)      :      1.584882968

Rotational constants in cm-1:             0.042977             0.025752             0.016151
Rotational constants in MHz :          1288.412736           772.037278           484.209235

                             ****ORCA TERMINATED NORMALLY****
TOTAL RUN TIME: 0 days 0 hours 4 minutes 29 seconds 196 msec
