                         Program Version 6.0.0  -   RELEASE  -
|  1> !r2SCANh aug-cc-pVTZ d3 TightSCF SlowConv RIJCOSX defgrid2
|  2>
|  3> %pal
|  4> nprocs 4
|  5> end
|  6>
|  7> %scf
|  8> MaxIter 1500
|  9> end
| 10>
| 11> %maxcore 3000
| 12>
| 13> !CPCM
| 14> %cpcm smd true
| 15> SMDsolvent "MeCN"
| 16> surfacetype gepol_ses
| 17> rsolv 2.19
| 18> end
| 19>
| 20> * xyz 1 2
| 21> C           0.39027202850425     -0.55394955520482     -0.01147318884514
| 22> C           1.46538411398227     -1.41201451226685      0.32843134291825
| 23> C           2.76223371510298     -0.95181499222389      0.33062494963678
| 24> C           3.04842985596685      0.39380533103560     -0.01062127484712
| 25> C           2.02568592855862      1.26931648709972     -0.30266231954854
| 26> C           0.67678776447609      0.85315037925119     -0.22862200210739
| 27> C          -0.33926818993375      1.86220315940674     -0.30117717382418
| 28> C          -1.56489251647505      1.82515242057598      0.30424492715440
| 29> C          -2.56690840928871      2.90896571125331      0.23231417274704
| 30> H          -3.53355272254525      2.51293544975722     -0.13479632863314
| 31> H          -2.77605157275142      3.30247609624592      1.24606137329070
| 32> H          -2.25129259404292      3.73887527736490     -0.41869887051134
| 33> H          -1.81399596674726      0.96710759352235      0.94261722102013
| 34> H          -0.04671759270647      2.79850717185556     -0.79419889631908
| 35> H           2.24475638702766      2.31715758324724     -0.52473414148750
| 36> H           4.08568441615477      0.73993162783082     -0.02214310519638
| 37> H           3.58311040506705     -1.63750220541102      0.55778721997041
| 38> H           1.27533483486936     -2.47214630677441      0.50835511028523
| 39> C          -0.92089212283098     -1.06759805095657     -0.27601443140599
| 40> C          -1.40401796068071     -2.28526831606367      0.13493631580958
| 41> C          -2.74957477405163     -2.79884516770918     -0.18467320513625
| 42> H          -3.33583401509727     -2.10778381332124     -0.80996844556913
| 43> H          -2.66557343194919     -3.77317132724075     -0.70581020687802
| 44> H          -3.31016753031929     -3.01606684555296      0.74550545986431
| 45> H          -0.77234901522658     -2.92837616395213      0.76142767228746
| 46> H          -1.58084503506342     -0.44553323176908     -0.89033947467507
| 47> *
| 48>
| 49>                          ****END OF INPUT****

CARTESIAN COORDINATES (ANGSTROEM)
---------------------------------
  C      0.390272   -0.553950   -0.011473
  C      1.465384   -1.412015    0.328431
  C      2.762234   -0.951815    0.330625
  C      3.048430    0.393805   -0.010621
  C      2.025686    1.269316   -0.302662
  C      0.676788    0.853150   -0.228622
  C     -0.339268    1.862203   -0.301177
  C     -1.564893    1.825152    0.304245
  C     -2.566908    2.908966    0.232314
  H     -3.533553    2.512935   -0.134796
  H     -2.776052    3.302476    1.246061
  H     -2.251293    3.738875   -0.418699
  H     -1.813996    0.967108    0.942617
  H     -0.046718    2.798507   -0.794199
  H      2.244756    2.317158   -0.524734
  H      4.085684    0.739932   -0.022143
  H      3.583110   -1.637502    0.557787
  H      1.275335   -2.472146    0.508355
  C     -0.920892   -1.067598   -0.276014
  C     -1.404018   -2.285268    0.134936
  C     -2.749575   -2.798845   -0.184673
  H     -3.335834   -2.107784   -0.809968
  H     -2.665573   -3.773171   -0.705810
  H     -3.310168   -3.016067    0.745505
  H     -0.772349   -2.928376    0.761428
  H     -1.580845   -0.445533   -0.890339

 Total Charge           Charge          ....    1
 Multiplicity           Mult            ....    2
 Number of Electrons    NEL             ....   85
 Basis Dimension        Dim             ....  874

ORBITAL ENERGIES
----------------
                 SPIN UP ORBITALS
  NO   OCC          E(Eh)            E(eV)
   0   1.0000     -10.225121      -278.2397
   1   1.0000     -10.222912      -278.1796
   2   1.0000     -10.216733      -278.0114
   3   1.0000     -10.210731      -277.8481
   4   1.0000     -10.200676      -277.5745
   5   1.0000     -10.195173      -277.4248
   6   1.0000     -10.194534      -277.4074
   7   1.0000     -10.193408      -277.3767
   8   1.0000     -10.189524      -277.2710
   9   1.0000     -10.186904      -277.1997
  10   1.0000     -10.165704      -276.6229
  11   1.0000     -10.163750      -276.5697
  12   1.0000      -0.905133       -24.6299
  13   1.0000      -0.839528       -22.8447
  14   1.0000      -0.835887       -22.7456
  15   1.0000      -0.782710       -21.2986
  16   1.0000      -0.780931       -21.2502
  17   1.0000      -0.715748       -19.4765
  18   1.0000      -0.693736       -18.8775
  19   1.0000      -0.640373       -17.4254
  20   1.0000      -0.623082       -16.9549
  21   1.0000      -0.574927       -15.6446
  22   1.0000      -0.570213       -15.5163
  23   1.0000      -0.527170       -14.3450
  24   1.0000      -0.495939       -13.4952
  25   1.0000      -0.486697       -13.2437
  26   1.0000      -0.460154       -12.5214
  27   1.0000      -0.445985       -12.1359
  28   1.0000      -0.444757       -12.1024
  29   1.0000      -0.423867       -11.5340
  30   1.0000      -0.420369       -11.4388
  31   1.0000      -0.418620       -11.3912
  32   1.0000      -0.402141       -10.9428
  33   1.0000      -0.399594       -10.8735
  34   1.0000      -0.389618       -10.6021
  35   1.0000      -0.371251       -10.1022
  36   1.0000      -0.365349        -9.9417
  37   1.0000      -0.359725        -9.7886
  38   1.0000      -0.350086        -9.5263
  39   1.0000      -0.322887        -8.7862
  40   1.0000      -0.319540        -8.6951
  41   1.0000      -0.263388        -7.1671
  42   1.0000      -0.245527        -6.6811
  43   0.0000      -0.104666        -2.8481
  44   0.0000      -0.069352        -1.8872
  45   0.0000      -0.017397        -0.4734
  46   0.0000       0.003163         0.0861
  47   0.0000       0.008773         0.2387

                 SPIN DOWN ORBITALS
  NO   OCC          E(Eh)            E(eV)
   0   1.0000     -10.222090      -278.1572
   1   1.0000     -10.220145      -278.1043
   2   1.0000     -10.210226      -277.8344
   3   1.0000     -10.206033      -277.7203
   4   1.0000     -10.201161      -277.5877
   5   1.0000     -10.194846      -277.4159
   6   1.0000     -10.193499      -277.3792
   7   1.0000     -10.192261      -277.3455
   8   1.0000     -10.190172      -277.2887
   9   1.0000     -10.187887      -277.2265
  10   1.0000     -10.165927      -276.6289
  11   1.0000     -10.163926      -276.5745
  12   1.0000      -0.899005       -24.4632
  13   1.0000      -0.831373       -22.6228
  14   1.0000      -0.829037       -22.5592
  15   1.0000      -0.777654       -21.1610
  16   1.0000      -0.773887       -21.0585
  17   1.0000      -0.715668       -19.4743
  18   1.0000      -0.690086       -18.7782
  19   1.0000      -0.635353       -17.2888
  20   1.0000      -0.618342       -16.8259
  21   1.0000      -0.569470       -15.4961
  22   1.0000      -0.566519       -15.4158
  23   1.0000      -0.525733       -14.3059
  24   1.0000      -0.494399       -13.4533
  25   1.0000      -0.485003       -13.1976
  26   1.0000      -0.458182       -12.4678
  27   1.0000      -0.444061       -12.0835
  28   1.0000      -0.440794       -11.9946
  29   1.0000      -0.419501       -11.4152
  30   1.0000      -0.411154       -11.1881
  31   1.0000      -0.410527       -11.1710
  32   1.0000      -0.399084       -10.8596
  33   1.0000      -0.390193       -10.6177
  34   1.0000      -0.387603       -10.5472
  35   1.0000      -0.370008       -10.0684
  36   1.0000      -0.364313        -9.9135
  37   1.0000      -0.358457        -9.7541
  38   1.0000      -0.348135        -9.4732
  39   1.0000      -0.312487        -8.5032
  40   1.0000      -0.305089        -8.3019
  41   1.0000      -0.251796        -6.8517
  42   0.0000      -0.191624        -5.2144
  43   0.0000      -0.075182        -2.0458
  44   0.0000      -0.059173        -1.6102
  45   0.0000      -0.002103        -0.0572
  46   0.0000       0.010532         0.2866

MULLIKEN ATOMIC CHARGES AND SPIN POPULATIONS
--------------------------------------------
   0 C :    1.563920    0.242889
   1 C :   -0.880767   -0.085615
   2 C :   -0.630786    0.074958
   3 C :   -0.327894    0.105940
   4 C :   -0.953745   -0.094727
   5 C :    1.394235    0.181524
   6 C :   -0.324754   -0.040448
   7 C :    0.085678    0.247594
   8 C :   -0.814905   -0.030219
   9 H :    0.209236    0.023122
  10 H :    0.205424    0.023033
  11 H :    0.242464   -0.004259
  12 H :    0.272815    0.020227
  13 H :    0.038517    0.005390
  14 H :    0.061972   -0.000515
  15 H :    0.493404    0.005367
  16 H :    0.434597    0.002345
  17 H :    0.029084   -0.006123
  18 C :    0.078844   -0.043233
  19 C :   -0.443747    0.337259
  20 C :   -0.772502   -0.053550
  21 H :    0.245828   -0.007320
  22 H :    0.224266    0.034617
  23 H :    0.190706    0.033213
  24 H :    0.192246    0.033920
  25 H :    0.185862   -0.005391
Sum of atomic charges         :    1.0000000

LOEWDIN ATOMIC CHARGES AND SPIN POPULATIONS
-------------------------------------------
   0 C :   -0.063950    0.101577
   1 C :    0.250943    0.013155
   2 C :    0.252321    0.047070
   3 C :    0.251158    0.056536
   4 C :    0.248119    0.007454
   5 C :   -0.074216    0.095716
   6 C :    0.259963    0.055994
   7 C :    0.259314    0.136067
   8 C :    0.601904    0.042992
   9 H :   -0.145864    0.009600
  10 H :   -0.144749    0.009795
  11 H :   -0.158116    0.000807
  12 H :   -0.154970    0.021916
  13 H :   -0.151344    0.003149
  14 H :   -0.149903   -0.005807
  15 H :   -0.147881    0.011878
  16 H :   -0.148791    0.008490
  17 H :   -0.166854   -0.004376
  18 C :    0.252569    0.070880
  19 C :    0.287828    0.191149
  20 C :    0.606428    0.060590
  21 H :   -0.156364    0.001022
  22 H :   -0.142652    0.014558
  23 H :   -0.143204    0.012506
  24 H :   -0.149391    0.034384
  25 H :   -0.172297    0.002898

  Mayer bond orders larger than 0.100000
B(  0-C ,  1-C ) :   0.3078 B(  0-C ,  3-C ) :  -0.2665 B(  0-C ,  4-C ) :  -0.1670
B(  0-C ,  5-C ) :   0.8528 B(  0-C ,  6-C ) :  -0.1039 B(  0-C ,  7-C ) :  -0.1154
B(  0-C , 17-H ) :  -0.1273 B(  0-C , 18-C ) :   0.3091 B(  0-C , 19-C ) :  -0.1139
B(  0-C , 24-H ) :  -0.1176 B(  1-C ,  2-C ) :   1.0956 B(  1-C ,  5-C ) :  -0.3028
B(  1-C , 17-H ) :   1.3584 B(  1-C , 18-C ) :   0.1528 B(  2-C ,  3-C ) :   1.0641
B(  2-C ,  5-C ) :  -0.1631 B(  2-C , 16-H ) :   0.6595 B(  2-C , 17-H ) :  -0.1303
B(  3-C ,  4-C ) :   0.9807 B(  3-C , 15-H ) :   0.6047 B(  4-C ,  5-C ) :   0.2497
B(  4-C ,  6-C ) :  -0.1678 B(  4-C ,  7-C ) :   0.1206 B(  4-C , 14-H ) :   1.2547
B(  4-C , 18-C ) :   0.1495 B(  5-C ,  6-C ) :   0.4536 B(  5-C , 12-H ) :  -0.1159
B(  5-C , 18-C ) :  -0.2419 B(  5-C , 19-C ) :   0.1381 B(  6-C ,  7-C ) :   0.9084
B(  6-C , 13-H ) :   1.1798 B(  7-C ,  8-C ) :   0.7015 B(  7-C , 12-H ) :   1.0771
B(  7-C , 13-H ) :  -0.1320 B(  8-C ,  9-H ) :   0.9953 B(  8-C , 10-H ) :   1.0151
B(  8-C , 11-H ) :   0.9497 B( 18-C , 19-C ) :   0.7758 B( 18-C , 25-H ) :   1.0863
B( 19-C , 20-C ) :   0.7180 B( 19-C , 24-H ) :   1.1474 B( 19-C , 25-H ) :  -0.1363
B( 20-C , 21-H ) :   0.9555 B( 20-C , 22-H ) :   0.9778 B( 20-C , 23-H ) :   1.0383
B( 20-C , 24-H ) :  -0.1028

Dispersion correction           -0.009248557
FINAL SINGLE POINT ENERGY      -465.357517224405

DIPOLE MOMENT
-------------

Method             : SCF
Type of density    : Electron Density
Multiplicity       :   2
Irrep              :   0
Energy             :  -465.3482686678731284 Eh
Relativity type    :
Basis              : AO
                                X                 Y                 Z
Electronic contribution:      9.412365934      -0.270142680      -0.220746606
Nuclear contribution   :    -10.132740029      -0.046037469       0.378723665
                        -----------------------------------------
Total Dipole Moment    :     -0.720374095      -0.316180148       0.157977059
                        -----------------------------------------
Magnitude (a.u.)       :      0.802412284
Magnitude (Debye)      :      2.039569939

Rotational constants in cm-1:             0.031811             0.026577             0.014887
Rotational constants in MHz :           953.672417           796.765756           446.304428

                             ****ORCA TERMINATED NORMALLY****
TOTAL RUN TIME: 0 days 0 hours 19 minutes 55 seconds 427 msec
