                         Program Version 6.0.0  -   RELEASE  -
|  1> !r2SCANh aug-cc-pVTZ d3 TightSCF SlowConv RIJCOSX defgrid2
|  2>
|  3> %pal
|  4> nprocs 4
|  5> end
|  6>
|  7> %scf
|  8> MaxIter 1500
|  9> end
| 10>
| 11> %maxcore 3000
| 12>
| 13> !CPCM
| 14> %cpcm smd true
| 15> SMDsolvent "MeCN"
| 16> surfacetype gepol_ses
| 17> rsolv 2.19
| 18> end
| 19>
| 20> * xyz 0 1
| 21> C           1.12535933003909      1.22184876665946      0.00445520319991
| 22> C          -0.26421837966179      1.23081993194340      0.01317294666685
| 23> C          -0.96286430889490      0.02291905897302      0.02071941900053
| 24> C          -0.27116790812085     -1.18968803907145      0.02233603706903
| 25> C           1.11927983593575     -1.19274556967928      0.01192236383456
| 26> C           1.83042608643697      0.01361001085842      0.00235629509897
| 27> C           3.33037499820744      0.07812373067826     -0.00830505647652
| 28> O           3.89335056176083      1.14924412695364     -0.01221784590005
| 29> C           4.10529699500755     -1.21691160959464     -0.01456211029497
| 30> H           3.87147665667906     -1.82176550317243      0.87909273734606
| 31> H           3.85275608025563     -1.82519649459447     -0.90071459246678
| 32> H           5.18018449663339     -0.98545182796753     -0.02600819379244
| 33> H           1.64770213714144     -2.14919199620359      0.01366659940447
| 34> H          -0.82322456445574     -2.13316803225065      0.03516466443551
| 35> C          -2.46760978555516      0.00136363107126     -0.00390087802805
| 36> F          -2.92475509769190     -0.39380754718327     -1.19713617306479
| 37> F          -2.95620262622450     -0.85163753941636      0.90171536543609
| 38> F          -2.99122934584873      1.20180958170133      0.24662255340156
| 39> H          -0.81146024395866      2.17606304264227      0.01753239307008
| 40> H           1.69903008231505      2.15205687765261      0.00003667206000
| 41> *
| 42>
| 43>                          ****END OF INPUT****

CARTESIAN COORDINATES (ANGSTROEM)
---------------------------------
  C      1.125359    1.221849    0.004455
  C     -0.264218    1.230820    0.013173
  C     -0.962864    0.022919    0.020719
  C     -0.271168   -1.189688    0.022336
  C      1.119280   -1.192746    0.011922
  C      1.830426    0.013610    0.002356
  C      3.330375    0.078124   -0.008305
  O      3.893351    1.149244   -0.012218
  C      4.105297   -1.216912   -0.014562
  H      3.871477   -1.821766    0.879093
  H      3.852756   -1.825196   -0.900715
  H      5.180184   -0.985452   -0.026008
  H      1.647702   -2.149192    0.013667
  H     -0.823225   -2.133168    0.035165
  C     -2.467610    0.001364   -0.003901
  F     -2.924755   -0.393808   -1.197136
  F     -2.956203   -0.851638    0.901715
  F     -2.991229    1.201810    0.246623
  H     -0.811460    2.176063    0.017532
  H      1.699030    2.152057    0.000037

 Total Charge           Charge          ....    0
 Multiplicity           Mult            ....    1
 Number of Electrons    NEL             ....   96
 Basis Dimension        Dim             ....  759

ORBITAL ENERGIES
----------------

  NO   OCC          E(Eh)            E(eV)
   0   2.0000     -24.715011      -672.5296
   1   2.0000     -24.713119      -672.4782
   2   2.0000     -24.712452      -672.4600
   3   2.0000     -19.110949      -520.0354
   4   2.0000     -10.414766      -283.4002
   5   2.0000     -10.253088      -279.0007
   6   2.0000     -10.196967      -277.4736
   7   2.0000     -10.182907      -277.0910
   8   2.0000     -10.182049      -277.0676
   9   2.0000     -10.181384      -277.0495
  10   2.0000     -10.180690      -277.0306
  11   2.0000     -10.176799      -276.9248
  12   2.0000     -10.152244      -276.2566
  13   2.0000      -1.335337       -36.3364
  14   2.0000      -1.246171       -33.9100
  15   2.0000      -1.243236       -33.8302
  16   2.0000      -1.056417       -28.7466
  17   2.0000      -0.884080       -24.0570
  18   2.0000      -0.802823       -21.8459
  19   2.0000      -0.765874       -20.8405
  20   2.0000      -0.740765       -20.1572
  21   2.0000      -0.706908       -19.2359
  22   2.0000      -0.642791       -17.4912
  23   2.0000      -0.625822       -17.0295
  24   2.0000      -0.595655       -16.2086
  25   2.0000      -0.588940       -16.0259
  26   2.0000      -0.569474       -15.4962
  27   2.0000      -0.553512       -15.0618
  28   2.0000      -0.485682       -13.2161
  29   2.0000      -0.475521       -12.9396
  30   2.0000      -0.470733       -12.8093
  31   2.0000      -0.464992       -12.6531
  32   2.0000      -0.448041       -12.1918
  33   2.0000      -0.437808       -11.9134
  34   2.0000      -0.432790       -11.7768
  35   2.0000      -0.432581       -11.7711
  36   2.0000      -0.424032       -11.5385
  37   2.0000      -0.420178       -11.4336
  38   2.0000      -0.413364       -11.2482
  39   2.0000      -0.408891       -11.1265
  40   2.0000      -0.381219       -10.3735
  41   2.0000      -0.374389       -10.1876
  42   2.0000      -0.356746        -9.7075
  43   2.0000      -0.355037        -9.6611
  44   2.0000      -0.343483        -9.3467
  45   2.0000      -0.274013        -7.4563
  46   2.0000      -0.269038        -7.3209
  47   2.0000      -0.249966        -6.8019
  48   0.0000      -0.086958        -2.3662
  49   0.0000      -0.039893        -1.0855
  50   0.0000       0.004330         0.1178
  51   0.0000       0.007963         0.2167
  52   0.0000       0.021637         0.5888

MULLIKEN ATOMIC CHARGES
-----------------------
   0 C :   -1.120048
   1 C :   -0.636113
   2 C :    0.863610
   3 C :   -0.985184
   4 C :   -0.534749
   5 C :    1.585465
   6 C :    0.867566
   7 O :   -0.969431
   8 C :   -0.589556
   9 H :    0.262507
  10 H :    0.259520
  11 H :    0.170551
  12 H :   -0.026138
  13 H :    0.381164
  14 C :    1.136540
  15 F :   -0.371638
  16 F :   -0.384773
  17 F :   -0.357884
  18 H :    0.313032
  19 H :    0.135560
Sum of atomic charges:   -0.0000000

LOEWDIN ATOMIC CHARGES
----------------------
   0 C :    0.212668
   1 C :    0.218682
   2 C :   -0.171946
   3 C :    0.219744
   4 C :    0.227318
   5 C :   -0.120073
   6 C :   -0.539791
   7 O :    0.489703
   8 C :    0.575679
   9 H :   -0.155688
  10 H :   -0.155769
  11 H :   -0.175168
  12 H :   -0.168350
  13 H :   -0.158249
  14 C :   -1.581522
  15 F :    0.538576
  16 F :    0.543946
  17 F :    0.556003
  18 H :   -0.174721
  19 H :   -0.181042

  Mayer bond orders larger than 0.100000
B(  0-C ,  1-C ) :   1.2379 B(  0-C ,  4-C ) :  -0.4164 B(  0-C ,  5-C ) :   0.1015
B(  0-C ,  6-C ) :   0.2142 B(  0-C , 19-H ) :   1.0978 B(  1-C ,  2-C ) :   0.6037
B(  1-C , 18-H ) :   0.8211 B(  2-C ,  3-C ) :   0.6317 B(  2-C , 14-C ) :   0.9087
B(  2-C , 15-F ) :   0.1424 B(  2-C , 16-F ) :   0.1268 B(  2-C , 17-F ) :   0.1434
B(  3-C ,  4-C ) :   0.9022 B(  3-C , 13-H ) :   0.7051 B(  4-C ,  5-C ) :   0.3959
B(  4-C , 12-H ) :   1.5358 B(  5-C ,  6-C ) :   0.3969 B(  5-C ,  7-O ) :   0.2564
B(  5-C , 12-H ) :  -0.2014 B(  6-C ,  7-O ) :   0.7688 B(  6-C ,  8-C ) :   0.9391
B(  7-O , 19-H ) :   0.1399 B(  8-C ,  9-H ) :   0.9543 B(  8-C , 10-H ) :   0.9564
B(  8-C , 11-H ) :   0.9535 B( 14-C , 15-F ) :   0.7975 B( 14-C , 16-F ) :   0.7685
B( 14-C , 17-F ) :   0.7153

Dispersion correction           -0.006726255
FINAL SINGLE POINT ENERGY      -721.845966827680

DIPOLE MOMENT
-------------

Method             : SCF
Type of density    : Electron Density
Multiplicity       :   1
Irrep              :   0
Energy             :  -721.8392405723006959 Eh
Relativity type    :
Basis              : AO
                                X                 Y                 Z
Electronic contribution:    -21.633447253       2.957017605      -0.049093630
Nuclear contribution   :     22.009157676      -4.256883990       0.073247664
                        -----------------------------------------
Total Dipole Moment    :      0.375710423      -1.299866384       0.024154033
                        -----------------------------------------
Magnitude (a.u.)       :      1.353290197
Magnitude (Debye)      :      3.439790315

Rotational constants in cm-1:             0.074861             0.012555             0.011413
Rotational constants in MHz :          2244.280303           376.379088           342.159113

                             ****ORCA TERMINATED NORMALLY****
TOTAL RUN TIME: 0 days 0 hours 7 minutes 22 seconds 969 msec
