                         Program Version 6.0.0  -   RELEASE  -
|  1> !r2SCAN aug-cc-pVTZ d3 TightSCF SlowConv RIJCOSX defgrid2
|  2>
|  3> %pal
|  4> nprocs 4
|  5> end
|  6>
|  7> %scf
|  8> MaxIter 1500
|  9> end
| 10>
| 11> %maxcore 3000
| 12>
| 13> !CPCM
| 14> %cpcm smd true
| 15> SMDsolvent "MeCN"
| 16> surfacetype gepol_ses
| 17> rsolv 2.19
| 18> end
| 19>
| 20> * xyz 1 2
| 21> C           0.87744843065952     -1.21883020305656     -0.00000377931808
| 22> C           1.23614385256415      0.16954678831828     -0.00005753568123
| 23> C           0.19424149048169      1.13860709962105     -0.00010423188513
| 24> C          -1.13871229830849      0.78765011017298     -0.00010761886515
| 25> C          -1.47639805753200     -0.61212175919558     -0.00004559988331
| 26> C          -0.44313247207265     -1.58385318757954     -0.00000224391858
| 27> H          -0.71685810144297     -2.64212602539406      0.00003056402544
| 28> C          -2.89571606376255     -1.03893857261662      0.00008867922043
| 29> H          -3.00213765434000     -2.13324643661373     -0.00058232712929
| 30> H          -3.42610981706820     -0.62983884560970     -0.88112182092760
| 31> H          -3.42539618531857     -0.63109402296886      0.88234176195400
| 32> C          -2.21290888782919      1.82515453001126     -0.00014347524999
| 33> H          -2.86411247883622      1.72648441322314      0.88680265880356
| 34> H          -2.86402349010390      1.72654581117049     -0.88716064088710
| 35> H          -1.78890328618740      2.84026297434392     -0.00008728403417
| 36> H           0.46977060139751      2.19725330423840     -0.00014030748002
| 37> C           2.58814654556121      0.62001515372005     -0.00006319236512
| 38> C           3.70337676945614     -0.17841322402212     -0.00002927580579
| 39> H           3.65253331490638     -1.27227115038024      0.00001025225905
| 40> H           4.70281234102144      0.26973736826902     -0.00003315173613
| 41> H           2.73668489690756      1.70605493317894     -0.00009332036310
| 42> H           1.65048734984656     -1.99000785883051      0.00003538926729
| 43> *
| 44>
| 45>                          ****END OF INPUT****

CARTESIAN COORDINATES (ANGSTROEM)
---------------------------------
  C      0.877448   -1.218830   -0.000004
  C      1.236144    0.169547   -0.000058
  C      0.194241    1.138607   -0.000104
  C     -1.138712    0.787650   -0.000108
  C     -1.476398   -0.612122   -0.000046
  C     -0.443132   -1.583853   -0.000002
  H     -0.716858   -2.642126    0.000031
  C     -2.895716   -1.038939    0.000089
  H     -3.002138   -2.133246   -0.000582
  H     -3.426110   -0.629839   -0.881122
  H     -3.425396   -0.631094    0.882342
  C     -2.212909    1.825155   -0.000143
  H     -2.864112    1.726484    0.886803
  H     -2.864023    1.726546   -0.887161
  H     -1.788903    2.840263   -0.000087
  H      0.469771    2.197253   -0.000140
  C      2.588147    0.620015   -0.000063
  C      3.703377   -0.178413   -0.000029
  H      3.652533   -1.272271    0.000010
  H      4.702812    0.269737   -0.000033
  H      2.736685    1.706055   -0.000093
  H      1.650487   -1.990008    0.000035

 Total Charge           Charge          ....    1
 Multiplicity           Mult            ....    2
 Number of Electrons    NEL             ....   71
 Basis Dimension        Dim             ....  736

ORBITAL ENERGIES
----------------
                 SPIN UP ORBITALS
  NO   OCC          E(Eh)            E(eV)
   0   1.0000     -10.112026      -275.1622
   1   1.0000     -10.107590      -275.0415
   2   1.0000     -10.093778      -274.6657
   3   1.0000     -10.090472      -274.5757
   4   1.0000     -10.090246      -274.5695
   5   1.0000     -10.086099      -274.4567
   6   1.0000     -10.074355      -274.1371
   7   1.0000     -10.071721      -274.0655
   8   1.0000     -10.048912      -273.4448
   9   1.0000     -10.043615      -273.3006
  10   1.0000      -0.873493       -23.7690
  11   1.0000      -0.814116       -22.1532
  12   1.0000      -0.768480       -20.9114
  13   1.0000      -0.753522       -20.5044
  14   1.0000      -0.695809       -18.9339
  15   1.0000      -0.666039       -18.1239
  16   1.0000      -0.609181       -16.5767
  17   1.0000      -0.597292       -16.2532
  18   1.0000      -0.543533       -14.7903
  19   1.0000      -0.499187       -13.5836
  20   1.0000      -0.482679       -13.1344
  21   1.0000      -0.450620       -12.2620
  22   1.0000      -0.431057       -11.7297
  23   1.0000      -0.426409       -11.6032
  24   1.0000      -0.415137       -11.2964
  25   1.0000      -0.408292       -11.1102
  26   1.0000      -0.384035       -10.4501
  27   1.0000      -0.378761       -10.3066
  28   1.0000      -0.374335       -10.1862
  29   1.0000      -0.370446       -10.0803
  30   1.0000      -0.358959        -9.7678
  31   1.0000      -0.339074        -9.2267
  32   1.0000      -0.329377        -8.9628
  33   1.0000      -0.315859        -8.5949
  34   1.0000      -0.268123        -7.2960
  35   1.0000      -0.254044        -6.9129
  36   0.0000      -0.121617        -3.3094
  37   0.0000      -0.063852        -1.7375
  38   0.0000      -0.024693        -0.6719
  39   0.0000       0.003548         0.0965
  40   0.0000       0.014449         0.3932

                 SPIN DOWN ORBITALS
  NO   OCC          E(Eh)            E(eV)
   0   1.0000     -10.106624      -275.0152
   1   1.0000     -10.103991      -274.9436
   2   1.0000     -10.091787      -274.6115
   3   1.0000     -10.089714      -274.5551
   4   1.0000     -10.085863      -274.4503
   5   1.0000     -10.083828      -274.3949
   6   1.0000     -10.074511      -274.1414
   7   1.0000     -10.072647      -274.0907
   8   1.0000     -10.049007      -273.4474
   9   1.0000     -10.043615      -273.3007
  10   1.0000      -0.866277       -23.5726
  11   1.0000      -0.805455       -21.9175
  12   1.0000      -0.767048       -20.8724
  13   1.0000      -0.742765       -20.2117
  14   1.0000      -0.691131       -18.8066
  15   1.0000      -0.660271       -17.9669
  16   1.0000      -0.603582       -16.4243
  17   1.0000      -0.593448       -16.1485
  18   1.0000      -0.538637       -14.6570
  19   1.0000      -0.498170       -13.5559
  20   1.0000      -0.480529       -13.0759
  21   1.0000      -0.447542       -12.1782
  22   1.0000      -0.424066       -11.5394
  23   1.0000      -0.420327       -11.4377
  24   1.0000      -0.413363       -11.2482
  25   1.0000      -0.407738       -11.0951
  26   1.0000      -0.379383       -10.3235
  27   1.0000      -0.372731       -10.1425
  28   1.0000      -0.370116       -10.0714
  29   1.0000      -0.364978        -9.9316
  30   1.0000      -0.357528        -9.7288
  31   1.0000      -0.338400        -9.2083
  32   1.0000      -0.327549        -8.9131
  33   1.0000      -0.296470        -8.0674
  34   1.0000      -0.263259        -7.1636
  35   0.0000      -0.210872        -5.7381
  36   0.0000      -0.087783        -2.3887
  37   0.0000      -0.055769        -1.5176
  38   0.0000      -0.002483        -0.0676
  39   0.0000       0.004602         0.1252

MULLIKEN ATOMIC CHARGES AND SPIN POPULATIONS
--------------------------------------------
   0 C :   -0.131016    0.126018
   1 C :    2.168086    0.270022
   2 C :   -1.041723   -0.024851
   3 C :    0.803074    0.037644
   4 C :    0.971612    0.346702
   5 C :   -1.135050   -0.096011
   6 H :   -0.018691   -0.004850
   7 C :   -0.666079   -0.052541
   8 H :    0.066683   -0.007894
   9 H :    0.223933    0.032661
  10 H :    0.224056    0.032736
  11 C :   -0.660099   -0.013014
  12 H :    0.211746    0.006475
  13 H :    0.211451    0.006480
  14 H :    0.081658    0.000020
  15 H :   -0.413904    0.002582
  16 C :    0.105855   -0.056544
  17 C :   -0.840906    0.353776
  18 H :    0.214086   -0.006122
  19 H :    0.323039    0.058676
  20 H :    0.105122   -0.007809
  21 H :    0.197066   -0.004156
Sum of atomic charges         :    1.0000000

LOEWDIN ATOMIC CHARGES AND SPIN POPULATIONS
-------------------------------------------
   0 C :    0.278160    0.087469
   1 C :   -0.080902    0.118310
   2 C :    0.280045    0.030122
   3 C :   -0.050937    0.056635
   4 C :   -0.035787    0.158746
   5 C :    0.285457    0.037597
   6 H :   -0.146626   -0.004135
   7 C :    0.623723    0.053215
   8 H :   -0.148708    0.001311
   9 H :   -0.133356    0.013125
  10 H :   -0.133256    0.013149
  11 C :    0.608845    0.006821
  12 H :   -0.142047    0.002250
  13 H :   -0.142051    0.002249
  14 H :   -0.153275    0.000063
  15 H :   -0.145357    0.000065
  16 C :    0.254039    0.073618
  17 C :    0.642614    0.237753
  18 H :   -0.182014    0.048340
  19 H :   -0.164025    0.053144
  20 H :   -0.156014   -0.002562
  21 H :   -0.158528    0.012715

  Mayer bond orders larger than 0.100000
B(  0-C ,  2-C ) :  -0.8232 B(  0-C ,  3-C ) :  -0.2767 B(  0-C ,  5-C ) :   0.7491
B(  0-C ,  6-H ) :  -0.1008 B(  0-C , 16-C ) :   0.2100 B(  0-C , 17-C ) :  -0.1188
B(  0-C , 18-H ) :  -0.1461 B(  0-C , 21-H ) :   1.4036 B(  1-C ,  2-C ) :  -0.6794
B(  1-C ,  3-C ) :   0.5192 B(  1-C ,  4-C ) :  -0.4496 B(  1-C , 15-H ) :  -0.5108
B(  2-C ,  3-C ) :   0.7071 B(  2-C ,  4-C ) :  -0.3202 B(  2-C ,  5-C ) :   0.1531
B(  2-C , 11-C ) :  -0.2625 B(  2-C , 15-H ) :   2.4283 B(  2-C , 16-C ) :   0.1072
B(  2-C , 17-C ) :   0.1181 B(  2-C , 20-H ) :  -0.1283 B(  3-C ,  4-C ) :   1.1845
B(  3-C ,  5-C ) :   0.1460 B(  3-C ,  7-C ) :   0.1540 B(  3-C , 15-H ) :  -0.2409
B(  3-C , 20-H ) :   0.1337 B(  3-C , 21-H ) :  -0.2356 B(  4-C ,  5-C ) :   0.4314
B(  4-C ,  7-C ) :   0.2937 B(  4-C , 11-C ) :   0.3668 B(  4-C , 16-C ) :   0.1735
B(  4-C , 21-H ) :  -0.1038 B(  5-C ,  6-H ) :   1.2988 B(  5-C ,  7-C ) :  -0.2273
B(  5-C , 17-C ) :  -0.1187 B(  5-C , 21-H ) :  -0.1856 B(  7-C ,  8-H ) :   1.0871
B(  7-C ,  9-H ) :   0.9660 B(  7-C , 10-H ) :   0.9654 B( 11-C , 12-H ) :   0.9965
B( 11-C , 13-H ) :   0.9965 B( 11-C , 14-H ) :   1.0432 B( 15-H , 16-C ) :  -0.2071
B( 15-H , 20-H ) :  -0.1084 B( 16-C , 17-C ) :   0.6015 B( 16-C , 20-H ) :   1.0593
B( 17-C , 18-H ) :   1.1821 B( 17-C , 19-H ) :   0.7765 B( 17-C , 20-H ) :  -0.2370

Dispersion correction           -0.007095594
FINAL SINGLE POINT ENERGY      -387.989777032165

DIPOLE MOMENT
-------------

Method             : SCF
Type of density    : Electron Density
Multiplicity       :   2
Irrep              :   0
Energy             :  -387.9826814378482140 Eh
Relativity type    :
Basis              : AO
                                X                 Y                 Z
Electronic contribution:      5.355916573      -1.235156770      -0.000575212
Nuclear contribution   :     -4.597722468       1.088585918       0.000480466
                        -----------------------------------------
Total Dipole Moment    :      0.758194105      -0.146570853      -0.000094746
                        -----------------------------------------
Magnitude (a.u.)       :      0.772231393
Magnitude (Debye)      :      1.962856210

Rotational constants in cm-1:             0.095239             0.029097             0.022475
Rotational constants in MHz :          2855.203991           872.315502           673.794268

                             ****ORCA TERMINATED NORMALLY****
TOTAL RUN TIME: 0 days 0 hours 7 minutes 14 seconds 742 msec
