                         Program Version 6.0.0  -   RELEASE  -
|  1> !TPSSh aug-cc-pVTZ d3 TightSCF SlowConv RIJCOSX defgrid2
|  2>
|  3> %pal
|  4> nprocs 4
|  5> end
|  6>
|  7> %scf
|  8> MaxIter 1500
|  9> end
| 10>
| 11> %maxcore 3000
| 12>
| 13> !CPCM
| 14> %cpcm smd true
| 15> SMDsolvent "MeCN"
| 16> surfacetype gepol_ses
| 17> rsolv 2.19
| 18> end
| 19>
| 20> * xyz -1 2
| 21> C           0.48430727092939     -1.21516905318477      0.00018212657990
| 22> C           1.86893489645764     -1.23471525883061      0.00003208773951
| 23> C           2.62346115159641     -0.04459960429403     -0.00011347347240
| 24> C           1.91719196899144      1.18166812135145     -0.00009858652004
| 25> C           0.53848704808454      1.21700668050313      0.00004693720302
| 26> C          -0.25134605739008      0.01820867284039      0.00018913172850
| 27> C          -1.68142459571573      0.11401828572460      0.00025810009938
| 28> O          -2.30904371905977      1.20375222206345     -0.00021388182496
| 29> C          -2.48201195396780     -1.18785928153366     -0.00008271887877
| 30> H          -3.55195535151616     -0.92055571828390     -0.00040503473791
| 31> H          -2.27639676371142     -1.81970454990542      0.88827366491426
| 32> H          -2.27584482297506     -1.81958543160251     -0.88839650427297
| 33> H          -0.00899519579743      2.16434489361400      0.00006122664782
| 34> H           2.47845175619435      2.12626372992034     -0.00020253099996
| 35> H           3.71827539321824     -0.06872896483531     -0.00023193512716
| 36> H           2.38810382970115     -2.20294221124226      0.00002680569261
| 37> H          -0.05769635503973     -2.16717953230489      0.00028068522919
| 38> *
| 39>
| 40>                          ****END OF INPUT****

CARTESIAN COORDINATES (ANGSTROEM)
---------------------------------
  C      0.484307   -1.215169    0.000182
  C      1.868935   -1.234715    0.000032
  C      2.623461   -0.044600   -0.000113
  C      1.917192    1.181668   -0.000099
  C      0.538487    1.217007    0.000047
  C     -0.251346    0.018209    0.000189
  C     -1.681425    0.114018    0.000258
  O     -2.309044    1.203752   -0.000214
  C     -2.482012   -1.187859   -0.000083
  H     -3.551955   -0.920556   -0.000405
  H     -2.276397   -1.819705    0.888274
  H     -2.275845   -1.819585   -0.888397
  H     -0.008995    2.164345    0.000061
  H      2.478452    2.126264   -0.000203
  H      3.718275   -0.068729   -0.000232
  H      2.388104   -2.202942    0.000027
  H     -0.057696   -2.167180    0.000281

 Total Charge           Charge          ....   -1
 Multiplicity           Mult            ....    2
 Number of Electrons    NEL             ....   65
 Basis Dimension        Dim             ....  598

ORBITAL ENERGIES
----------------
                 SPIN UP ORBITALS
  NO   OCC          E(Eh)            E(eV)
   0   1.0000     -18.974071      -516.3107
   1   1.0000     -10.124578      -275.5038
   2   1.0000     -10.093432      -274.6562
   3   1.0000     -10.093418      -274.6559
   4   1.0000     -10.089258      -274.5427
   5   1.0000     -10.084912      -274.4244
   6   1.0000     -10.084859      -274.4230
   7   1.0000     -10.084174      -274.4043
   8   1.0000     -10.079974      -274.2900
   9   1.0000      -0.940547       -25.5936
  10   1.0000      -0.802026       -21.8242
  11   1.0000      -0.714639       -19.4463
  12   1.0000      -0.699944       -19.0464
  13   1.0000      -0.668154       -18.1814
  14   1.0000      -0.581921       -15.8349
  15   1.0000      -0.550637       -14.9836
  16   1.0000      -0.498870       -13.5749
  17   1.0000      -0.457100       -12.4383
  18   1.0000      -0.408812       -11.1244
  19   1.0000      -0.402003       -10.9390
  20   1.0000      -0.391327       -10.6485
  21   1.0000      -0.387682       -10.5494
  22   1.0000      -0.373873       -10.1736
  23   1.0000      -0.344237        -9.3672
  24   1.0000      -0.336989        -9.1699
  25   1.0000      -0.335830        -9.1384
  26   1.0000      -0.309530        -8.4227
  27   1.0000      -0.300002        -8.1635
  28   1.0000      -0.285394        -7.7660
  29   1.0000      -0.231089        -6.2882
  30   1.0000      -0.222961        -6.0671
  31   1.0000      -0.187833        -5.1112
  32   1.0000      -0.084253        -2.2926
  33   0.0000      -0.003019        -0.0821
  34   0.0000      -0.002802        -0.0762
  35   0.0000       0.010356         0.2818
  36   0.0000       0.014585         0.3969
  37   0.0000       0.024434         0.6649

                 SPIN DOWN ORBITALS
  NO   OCC          E(Eh)            E(eV)
   0   1.0000     -18.968385      -516.1560
   1   1.0000     -10.120387      -275.3897
   2   1.0000     -10.094496      -274.6852
   3   1.0000     -10.094415      -274.6830
   4   1.0000     -10.087004      -274.4813
   5   1.0000     -10.085241      -274.4334
   6   1.0000     -10.081827      -274.3405
   7   1.0000     -10.080546      -274.3056
   8   1.0000     -10.078543      -274.2511
   9   1.0000      -0.930693       -25.3255
  10   1.0000      -0.798253       -21.7216
  11   1.0000      -0.708225       -19.2718
  12   1.0000      -0.696658       -18.9570
  13   1.0000      -0.665646       -18.1132
  14   1.0000      -0.573132       -15.5957
  15   1.0000      -0.549427       -14.9507
  16   1.0000      -0.495204       -13.4752
  17   1.0000      -0.452947       -12.3253
  18   1.0000      -0.406251       -11.0546
  19   1.0000      -0.398924       -10.8553
  20   1.0000      -0.390317       -10.6211
  21   1.0000      -0.377570       -10.2742
  22   1.0000      -0.373216       -10.1557
  23   1.0000      -0.340737        -9.2719
  24   1.0000      -0.335711        -9.1352
  25   1.0000      -0.325776        -8.8648
  26   1.0000      -0.307470        -8.3667
  27   1.0000      -0.284354        -7.7377
  28   1.0000      -0.277310        -7.5460
  29   1.0000      -0.222088        -6.0433
  30   1.0000      -0.201985        -5.4963
  31   1.0000      -0.183984        -5.0065
  32   0.0000      -0.032316        -0.8794
  33   0.0000      -0.000802        -0.0218
  34   0.0000       0.001822         0.0496
  35   0.0000       0.012099         0.3292
  36   0.0000       0.016735         0.4554

MULLIKEN ATOMIC CHARGES AND SPIN POPULATIONS
--------------------------------------------
   0 C :   -0.713392    0.214709
   1 C :   -0.538447   -0.090220
   2 C :   -0.265544    0.303645
   3 C :   -0.363045   -0.081470
   4 C :   -1.027215    0.220230
   5 C :    1.446155    0.041706
   6 C :    0.813584    0.224153
   7 O :   -1.170424    0.218322
   8 C :   -0.308743   -0.027585
   9 H :   -0.060909   -0.000628
  10 H :    0.174640    0.009577
  11 H :    0.175518    0.009592
  12 H :   -0.125409   -0.014554
  13 H :    0.404185   -0.015829
  14 H :    0.290579   -0.002904
  15 H :    0.370219   -0.012714
  16 H :   -0.101754    0.003971
Sum of atomic charges         :   -1.0000000

LOEWDIN ATOMIC CHARGES AND SPIN POPULATIONS
-------------------------------------------
   0 C :    0.142742    0.087665
   1 C :    0.120903    0.035376
   2 C :    0.131397    0.134583
   3 C :    0.119019    0.033659
   4 C :    0.128234    0.086909
   5 C :   -0.213315    0.123506
   6 C :   -0.673063    0.185066
   7 O :    0.339066    0.196740
   8 C :    0.492126    0.034131
   9 H :   -0.205199   -0.000762
  10 H :   -0.180058    0.008861
  11 H :   -0.180091    0.008870
  12 H :   -0.219467    0.018394
  13 H :   -0.193024   -0.003294
  14 H :   -0.209910    0.035182
  15 H :   -0.191438   -0.002763
  16 H :   -0.207924    0.017878

  Mayer bond orders larger than 0.100000
B(  0-C ,  1-C ) :   1.2850 B(  0-C ,  4-C ) :  -0.2101 B(  0-C ,  5-C ) :   0.2606
B(  0-C ,  6-C ) :   0.1906 B(  0-C , 12-H ) :   0.1678 B(  0-C , 16-H ) :   1.5339
B(  1-C ,  2-C ) :   1.1788 B(  1-C , 15-H ) :   0.6428 B(  2-C ,  3-C ) :   1.1621
B(  2-C ,  6-C ) :   0.1327 B(  2-C , 14-H ) :   0.7193 B(  3-C ,  4-C ) :   1.4665
B(  3-C ,  6-C ) :   0.1166 B(  3-C , 12-H ) :  -0.1205 B(  3-C , 13-H ) :   0.6518
B(  4-C ,  5-C ) :   0.2008 B(  4-C ,  6-C ) :   0.1871 B(  4-C , 12-H ) :   1.3232
B(  4-C , 13-H ) :  -0.1321 B(  4-C , 14-H ) :   0.1224 B(  4-C , 16-H ) :   0.1068
B(  5-C ,  6-C ) :   0.6565 B(  5-C ,  7-O ) :   0.2325 B(  5-C , 16-H ) :  -0.1102
B(  6-C ,  7-O ) :   0.1495 B(  6-C ,  8-C ) :   1.0128 B(  6-C , 12-H ) :  -0.1623
B(  6-C , 13-H ) :   0.1642 B(  6-C , 16-H ) :  -0.1303 B(  7-O , 12-H ) :   0.1900
B(  8-C ,  9-H ) :   1.0586 B(  8-C , 10-H ) :   0.9536 B(  8-C , 11-H ) :   0.9532
B( 12-H , 16-H ) :   0.1225

Dispersion correction           -0.020149115
FINAL SINGLE POINT ENERGY      -385.167141749079

DIPOLE MOMENT
-------------

Method             : SCF
Type of density    : Electron Density
Multiplicity       :   2
Irrep              :   0
Energy             :  -385.1469926338402843 Eh
Relativity type    :
Basis              : AO
                                X                 Y                 Z
Electronic contribution:      0.983787308       3.017328217       0.000799047
Nuclear contribution   :      0.371773726      -4.441970232      -0.000619392
                        -----------------------------------------
Total Dipole Moment    :      1.355561034      -1.424642015       0.000179655
                        -----------------------------------------
Magnitude (a.u.)       :      1.966507213
Magnitude (Debye)      :      4.998464102

Rotational constants in cm-1:             0.121326             0.040165             0.030348
Rotational constants in MHz :          3637.264281          1204.105692           909.812230

                             ****ORCA TERMINATED NORMALLY****
TOTAL RUN TIME: 0 days 0 hours 6 minutes 51 seconds 420 msec
