                         Program Version 6.0.0  -   RELEASE  -
|  1> !r2SCANh aug-cc-pVTZ d3 TightSCF SlowConv RIJCOSX defgrid2
|  2>
|  3> %pal
|  4> nprocs 4
|  5> end
|  6>
|  7> %scf
|  8> MaxIter 1500
|  9> end
| 10>
| 11> %maxcore 3000
| 12>
| 13> !CPCM
| 14> %cpcm smd true
| 15> SMDsolvent "MeCN"
| 16> surfacetype gepol_ses
| 17> rsolv 2.19
| 18> end
| 19>
| 20> * xyz 1 2
| 21> N          -0.13330630053238      0.06463805569502     -0.18304866803580
| 22> C          -1.32995968454461     -0.05705711923400      0.61490351827717
| 23> C          -2.57421309286138      0.33481234464037     -0.19256986810199
| 24> H          -3.45480969375926      0.22323852439894      0.46049095721574
| 25> H          -2.70531629638278     -0.32397925846158     -1.06629352870040
| 26> H          -2.52831512549297      1.38214059969960     -0.53226116106563
| 27> H          -1.40987553635449     -1.09741088656851      0.96495289752573
| 28> H          -1.21877257502732      0.60521085770950      1.49113445986830
| 29> C           0.43429422987933     -1.10866495137441     -0.80815428990417
| 30> C           1.14824192611518     -2.02637648462657      0.18904742798723
| 31> H           0.46485226728110     -2.40600168320464      0.96542777225008
| 32> H           1.54101253446494     -2.89222669399406     -0.36800716513612
| 33> H           1.99361403139429     -1.51333347667236      0.67360854639463
| 34> H          -0.40183357197737     -1.65464503658306     -1.28440413538018
| 35> H           1.12467869031116     -0.77476724100708     -1.59754076820295
| 36> C           0.46556546208798      1.36302303485303     -0.38848915911148
| 37> C           1.83969934059673      1.47885748883746      0.27662539319278
| 38> H           2.56824381802577      0.77442980736822     -0.15544421644798
| 39> H           1.77196599043451      1.31206045111972      1.36382157767815
| 40> H           2.21499768699688      2.50090234957054      0.10662332519206
| 41> H           0.56270404138467      1.51155401080161     -1.48061267604024
| 42> H          -0.22507674203997      2.12332900703226      0.00577186054505
| 43> *
| 44>
| 45>                          ****END OF INPUT****

CARTESIAN COORDINATES (ANGSTROEM)
---------------------------------
  N     -0.133306    0.064638   -0.183049
  C     -1.329960   -0.057057    0.614904
  C     -2.574213    0.334812   -0.192570
  H     -3.454810    0.223239    0.460491
  H     -2.705316   -0.323979   -1.066294
  H     -2.528315    1.382141   -0.532261
  H     -1.409876   -1.097411    0.964953
  H     -1.218773    0.605211    1.491134
  C      0.434294   -1.108665   -0.808154
  C      1.148242   -2.026376    0.189047
  H      0.464852   -2.406002    0.965428
  H      1.541013   -2.892227   -0.368007
  H      1.993614   -1.513333    0.673609
  H     -0.401834   -1.654645   -1.284404
  H      1.124679   -0.774767   -1.597541
  C      0.465565    1.363023   -0.388489
  C      1.839699    1.478857    0.276625
  H      2.568244    0.774430   -0.155444
  H      1.771966    1.312060    1.363822
  H      2.214998    2.500902    0.106623
  H      0.562704    1.511554   -1.480613
  H     -0.225077    2.123329    0.005772

 Total Charge           Charge          ....    1
 Multiplicity           Mult            ....    2
 Number of Electrons    NEL             ....   57
 Basis Dimension        Dim             ....  667

ORBITAL ENERGIES
----------------
                 SPIN UP ORBITALS
  NO   OCC          E(Eh)            E(eV)
   0   1.0000     -14.444046      -393.0425
   1   1.0000     -10.220643      -278.1178
   2   1.0000     -10.220142      -278.1042
   3   1.0000     -10.220058      -278.1019
   4   1.0000     -10.168807      -276.7073
   5   1.0000     -10.168195      -276.6906
   6   1.0000     -10.167788      -276.6796
   7   1.0000      -1.028470       -27.9861
   8   1.0000      -0.802224       -21.8296
   9   1.0000      -0.800547       -21.7840
  10   1.0000      -0.734930       -19.9985
  11   1.0000      -0.668233       -18.1835
  12   1.0000      -0.660512       -17.9735
  13   1.0000      -0.582197       -15.8424
  14   1.0000      -0.536471       -14.5981
  15   1.0000      -0.518251       -14.1023
  16   1.0000      -0.495302       -13.4779
  17   1.0000      -0.450677       -12.2635
  18   1.0000      -0.441192       -12.0055
  19   1.0000      -0.432781       -11.7766
  20   1.0000      -0.404005       -10.9935
  21   1.0000      -0.398178       -10.8350
  22   1.0000      -0.391118       -10.6429
  23   1.0000      -0.381735       -10.3876
  24   1.0000      -0.375004       -10.2044
  25   1.0000      -0.358435        -9.7535
  26   1.0000      -0.354796        -9.6545
  27   1.0000      -0.350224        -9.5301
  28   1.0000      -0.293922        -7.9980
  29   0.0000       0.008702         0.2368
  30   0.0000       0.021072         0.5734
  31   0.0000       0.024780         0.6743
  32   0.0000       0.026805         0.7294
  33   0.0000       0.042629         1.1600

                 SPIN DOWN ORBITALS
  NO   OCC          E(Eh)            E(eV)
   0   1.0000     -14.421650      -392.4331
   1   1.0000     -10.221294      -278.1355
   2   1.0000     -10.220787      -278.1217
   3   1.0000     -10.220683      -278.1189
   4   1.0000     -10.167107      -276.6611
   5   1.0000     -10.166699      -276.6499
   6   1.0000     -10.166318      -276.6396
   7   1.0000      -0.990595       -26.9555
   8   1.0000      -0.799121       -21.7452
   9   1.0000      -0.797708       -21.7067
  10   1.0000      -0.724406       -19.7121
  11   1.0000      -0.662828       -18.0365
  12   1.0000      -0.656948       -17.8765
  13   1.0000      -0.572111       -15.5679
  14   1.0000      -0.522159       -14.2087
  15   1.0000      -0.513466       -13.9721
  16   1.0000      -0.467871       -12.7314
  17   1.0000      -0.447346       -12.1729
  18   1.0000      -0.436296       -11.8722
  19   1.0000      -0.422556       -11.4983
  20   1.0000      -0.398925       -10.8553
  21   1.0000      -0.391890       -10.6639
  22   1.0000      -0.385826       -10.4989
  23   1.0000      -0.378741       -10.3061
  24   1.0000      -0.372287       -10.1304
  25   1.0000      -0.356192        -9.6925
  26   1.0000      -0.352342        -9.5877
  27   1.0000      -0.347721        -9.4620
  28   0.0000      -0.163719        -4.4550
  29   0.0000       0.009900         0.2694
  30   0.0000       0.022279         0.6062
  31   0.0000       0.025701         0.6994
  32   0.0000       0.027731         0.7546

MULLIKEN ATOMIC CHARGES AND SPIN POPULATIONS
--------------------------------------------
   0 N :    0.631060    0.857665
   1 C :   -0.238014   -0.073613
   2 C :   -0.693980    0.094592
   3 H :    0.189915    0.012387
   4 H :    0.207425    0.000301
   5 H :    0.226795    0.000230
   6 H :    0.239655   -0.000079
   7 H :    0.167064    0.021434
   8 C :   -0.177180   -0.077601
   9 C :   -0.678369    0.077659
  10 H :    0.214141   -0.000529
  11 H :    0.171652    0.010076
  12 H :    0.243354    0.001635
  13 H :    0.212646    0.032585
  14 H :    0.169766   -0.006039
  15 C :   -0.273909   -0.075860
  16 C :   -0.646892    0.074845
  17 H :    0.232779    0.000517
  18 H :    0.220228    0.002679
  19 H :    0.164672    0.009615
  20 H :    0.201346    0.039524
  21 H :    0.215847   -0.002024
Sum of atomic charges         :    1.0000000

LOEWDIN ATOMIC CHARGES AND SPIN POPULATIONS
-------------------------------------------
   0 N :    0.365791    0.532938
   1 C :    0.240516    0.085058
   2 C :    0.634035    0.039319
   3 H :   -0.142763    0.008849
   4 H :   -0.146023    0.003627
   5 H :   -0.149572    0.003165
   6 H :   -0.123354    0.004187
   7 H :   -0.100034    0.013414
   8 C :    0.242390    0.084229
   9 C :    0.629701    0.033733
  10 H :   -0.153027    0.002618
  11 H :   -0.141242    0.007179
  12 H :   -0.155330    0.003848
  13 H :   -0.098841    0.018976
  14 H :   -0.114884    0.001971
  15 C :    0.241160    0.086617
  16 C :    0.628175    0.034199
  17 H :   -0.155841    0.002918
  18 H :   -0.141757    0.003661
  19 H :   -0.141710    0.007518
  20 H :   -0.095982    0.020708
  21 H :   -0.121409    0.001270

  Mayer bond orders larger than 0.100000
B(  0-N ,  1-C ) :   0.8599 B(  0-N ,  8-C ) :   0.8854 B(  0-N , 15-C ) :   0.8640
B(  1-C ,  2-C ) :   0.7892 B(  1-C ,  6-H ) :   0.9096 B(  1-C ,  7-H ) :   0.9728
B(  2-C ,  3-H ) :   1.0225 B(  2-C ,  4-H ) :   0.9699 B(  2-C ,  5-H ) :   0.9630
B(  8-C ,  9-C ) :   0.7564 B(  8-C , 13-H ) :   0.8695 B(  8-C , 14-H ) :   1.0388
B(  9-C , 10-H ) :   0.9836 B(  9-C , 11-H ) :   1.0300 B(  9-C , 12-H ) :   0.9322
B( 15-C , 16-C ) :   0.8119 B( 15-C , 20-H ) :   0.9255 B( 15-C , 21-H ) :   0.9728
B( 16-C , 17-H ) :   0.9452 B( 16-C , 18-H ) :   0.9558 B( 16-C , 19-H ) :   1.0395

Dispersion correction           -0.005876268
FINAL SINGLE POINT ENERGY      -292.154211357571

DIPOLE MOMENT
-------------

Method             : SCF
Type of density    : Electron Density
Multiplicity       :   2
Irrep              :   0
Energy             :  -292.1483350897352125 Eh
Relativity type    :
Basis              : AO
                                X                 Y                 Z
Electronic contribution:     -0.703717804       0.366146363      -0.686589962
Nuclear contribution   :      0.524236393      -0.282986655       0.510171142
                        -----------------------------------------
Total Dipole Moment    :     -0.179481411       0.083159709      -0.176418819
                        -----------------------------------------
Magnitude (a.u.)       :      0.265052285
Magnitude (Debye)      :      0.673709368

Rotational constants in cm-1:             0.091790             0.068571             0.045776
Rotational constants in MHz :          2751.807698          2055.699126          1372.315040

                             ****ORCA TERMINATED NORMALLY****
TOTAL RUN TIME: 0 days 0 hours 7 minutes 30 seconds 155 msec
