                         Program Version 6.0.0  -   RELEASE  -
|  1> !r2SCAN aug-cc-pVTZ d3 TightSCF SlowConv RIJCOSX defgrid2
|  2>
|  3> %pal
|  4> nprocs 4
|  5> end
|  6>
|  7> %scf
|  8> MaxIter 1500
|  9> end
| 10>
| 11> %maxcore 3000
| 12>
| 13> !CPCM
| 14> %cpcm smd true
| 15> SMDsolvent "MeCN"
| 16> surfacetype gepol_ses
| 17> rsolv 2.19
| 18> end
| 19>
| 20> * xyz 1 2
| 21> C          -1.21410268013558      0.66079671488085      0.00044125101463
| 22> C          -0.00479873951211      1.42348649358076      0.00008291249140
| 23> C           1.19917788477091      0.76805500599948     -0.00093245598873
| 24> C           1.21410525376750     -0.66078759041144     -0.00041186823336
| 25> C           0.00483277696024     -1.42348058095615     -0.00006380880582
| 26> C          -1.19915583251644     -0.76807297563841      0.00095026344814
| 27> H          -2.14500237789104     -1.31691197560262      0.00198921433109
| 28> H           0.05803237074867     -2.51570929713129     -0.00010038106333
| 29> H           2.17564601802106     -1.18573947417440      0.00063492612648
| 30> H           2.14497947433067      1.31689182680587     -0.00197612697820
| 31> H          -0.05801300840356      2.51575704823161      0.00011149719674
| 32> H          -2.17570214014031      1.18578190441576     -0.00060722353904
| 33> *
| 34>
| 35>                          ****END OF INPUT****

CARTESIAN COORDINATES (ANGSTROEM)
---------------------------------
  C     -1.214103    0.660797    0.000441
  C     -0.004799    1.423486    0.000083
  C      1.199178    0.768055   -0.000932
  C      1.214105   -0.660788   -0.000412
  C      0.004833   -1.423481   -0.000064
  C     -1.199156   -0.768073    0.000950
  H     -2.145002   -1.316912    0.001989
  H      0.058032   -2.515709   -0.000100
  H      2.175646   -1.185739    0.000635
  H      2.144979    1.316892   -0.001976
  H     -0.058013    2.515757    0.000111
  H     -2.175702    1.185782   -0.000607

 Total Charge           Charge          ....    1
 Multiplicity           Mult            ....    2
 Number of Electrons    NEL             ....   41
 Basis Dimension        Dim             ....  414

ORBITAL ENERGIES
----------------
                 SPIN UP ORBITALS
  NO   OCC          E(Eh)            E(eV)
   0   1.0000     -10.131904      -275.7031
   1   1.0000     -10.131882      -275.7025
   2   1.0000     -10.096978      -274.7528
   3   1.0000     -10.096962      -274.7523
   4   1.0000     -10.096253      -274.7330
   5   1.0000     -10.096232      -274.7324
   6   1.0000      -0.878243       -23.8982
   7   1.0000      -0.771752       -21.0005
   8   1.0000      -0.767911       -20.8959
   9   1.0000      -0.626031       -17.0352
  10   1.0000      -0.615706       -16.7542
  11   1.0000      -0.529480       -14.4079
  12   1.0000      -0.468573       -12.7505
  13   1.0000      -0.468081       -12.7371
  14   1.0000      -0.434390       -11.8203
  15   1.0000      -0.427773       -11.6403
  16   1.0000      -0.406965       -11.0741
  17   1.0000      -0.359098        -9.7716
  18   1.0000      -0.353882        -9.6296
  19   1.0000      -0.312186        -8.4950
  20   1.0000      -0.290984        -7.9181
  21   0.0000      -0.116225        -3.1626
  22   0.0000      -0.079490        -2.1630
  23   0.0000       0.006233         0.1696
  24   0.0000       0.026695         0.7264
  25   0.0000       0.027250         0.7415

                 SPIN DOWN ORBITALS
  NO   OCC          E(Eh)            E(eV)
   0   1.0000     -10.123729      -275.4807
   1   1.0000     -10.123710      -275.4801
   2   1.0000     -10.096623      -274.7431
   3   1.0000     -10.096607      -274.7426
   4   1.0000     -10.095962      -274.7251
   5   1.0000     -10.095941      -274.7245
   6   1.0000      -0.865962       -23.5640
   7   1.0000      -0.766543       -20.8587
   8   1.0000      -0.747253       -20.3338
   9   1.0000      -0.613231       -16.6869
  10   1.0000      -0.610510       -16.6128
  11   1.0000      -0.528285       -14.3754
  12   1.0000      -0.464546       -12.6409
  13   1.0000      -0.463143       -12.6028
  14   1.0000      -0.434837       -11.8325
  15   1.0000      -0.423656       -11.5283
  16   1.0000      -0.375623       -10.2212
  17   1.0000      -0.357665        -9.7326
  18   1.0000      -0.351024        -9.5518
  19   1.0000      -0.286882        -7.8065
  20   0.0000      -0.248675        -6.7668
  21   0.0000      -0.067999        -1.8504
  22   0.0000      -0.064012        -1.7419
  23   0.0000       0.008996         0.2448
  24   0.0000       0.027797         0.7564

MULLIKEN ATOMIC CHARGES AND SPIN POPULATIONS
--------------------------------------------
   0 C :   -0.206803    0.412209
   1 C :   -0.267664    0.028802
   2 C :   -0.272127    0.022389
   3 C :   -0.206903    0.412146
   4 C :   -0.267780    0.028770
   5 C :   -0.272048    0.022415
   6 H :    0.410341   -0.001854
   7 H :    0.411530   -0.002065
   8 H :    0.424850    0.040567
   9 H :    0.410386   -0.001848
  10 H :    0.411459   -0.002085
  11 H :    0.424759    0.040552
Sum of atomic charges         :    1.0000000

LOEWDIN ATOMIC CHARGES AND SPIN POPULATIONS
-------------------------------------------
   0 C :    0.326002    0.258284
   1 C :    0.285932    0.090511
   2 C :    0.285424    0.088290
   3 C :    0.325994    0.258251
   4 C :    0.285928    0.090497
   5 C :    0.285429    0.088303
   6 H :   -0.138680    0.004747
   7 H :   -0.138384    0.005433
   8 H :   -0.120319    0.052753
   9 H :   -0.138715    0.004744
  10 H :   -0.138347    0.005436
  11 H :   -0.120265    0.052751

  Mayer bond orders larger than 0.100000
B(  0-C ,  1-C ) :   0.9649 B(  0-C ,  5-C ) :   0.9619 B(  0-C , 11-H ) :   0.6789
B(  1-C ,  2-C ) :   1.2685 B(  1-C , 10-H ) :   0.7307 B(  2-C ,  3-C ) :   0.9620
B(  2-C ,  9-H ) :   0.7338 B(  3-C ,  4-C ) :   0.9650 B(  3-C ,  8-H ) :   0.6787
B(  4-C ,  5-C ) :   1.2685 B(  4-C ,  7-H ) :   0.7306 B(  5-C ,  6-H ) :   0.7338

Dispersion correction           -0.003005011
FINAL SINGLE POINT ENERGY      -231.954007174554

DIPOLE MOMENT
-------------

Method             : SCF
Type of density    : Electron Density
Multiplicity       :   2
Irrep              :   0
Energy             :  -231.9510021637599948 Eh
Relativity type    :
Basis              : AO
                                X                 Y                 Z
Electronic contribution:     -0.000000164       0.000002950       0.000010389
Nuclear contribution   :     -0.000102416       0.000063154      -0.000012453
                        -----------------------------------------
Total Dipole Moment    :     -0.000102580       0.000066104      -0.000002064
                        -----------------------------------------
Magnitude (a.u.)       :      0.000122052
Magnitude (Debye)      :      0.000310231

Rotational constants in cm-1:             0.193350             0.179303             0.093031
Rotational constants in MHz :          5796.486713          5375.355688          2788.992179

                             ****ORCA TERMINATED NORMALLY****
TOTAL RUN TIME: 0 days 0 hours 2 minutes 11 seconds 235 msec
