                         Program Version 6.0.0  -   RELEASE  -
|  1> !r2SCANh opt aug-cc-pVTZ d3 TightSCF SlowConv RIJCOSX defgrid2
|  2>
|  3> %pal
|  4> nprocs 8
|  5> end
|  6>
|  7> %scf
|  8> MaxIter 1500
|  9> end
| 10>
| 11> %maxcore 3500
| 12>
| 13> !CPCM
| 14> %cpcm smd true
| 15> SMDsolvent "MeCN"
| 16> surfacetype gepol_ses
| 17> rsolv 2.19
| 18> end
| 19>
| 20> * xyz 1 2
| 21> C           2.42348472290459     -0.91745853608407      0.59245240880380
| 22> C           1.25995896348321     -0.39202749196625     -0.02333100512405
| 23> C           1.34845533499414      0.85031226217091     -0.70354304574749
| 24> C           2.54901795106357      1.53889253592779     -0.75588972072195
| 25> C           3.68078809059867      1.01347219167219     -0.12249703890860
| 26> C           3.61293527426724     -0.21317645517309      0.55511971135216
| 27> H           4.49963825852970     -0.61051765955941      1.05572901180402
| 28> H           4.62917087127076      1.55697433746367     -0.16496199627931
| 29> H           2.61592640542583      2.48137948500377     -1.30532606762871
| 30> H           0.47393529747941      1.23580556067586     -1.23411925330570
| 31> C          -0.00001731418985     -1.11439032518152     -0.00002747562644
| 32> C          -0.00002568960524     -2.50679262514812     -0.00005487800504
| 33> H          -0.93480054732863     -3.07584961343870     -0.00342574946663
| 34> H           0.93474533226452     -3.07585703929259      0.00329162420143
| 35> C          -1.25998231282226     -0.39200541574857      0.02329276572865
| 36> C          -2.42352655120021     -0.91741544935804     -0.59247757528391
| 37> C          -3.61296415978219     -0.21311035984979     -0.55512705740855
| 38> C          -3.68079177573927      1.01353038434026      0.12250956134291
| 39> C          -2.54900448879428      1.53892565378929      0.75589582496725
| 40> C          -1.34845157706727      0.85032505299238      0.70352498564033
| 41> H          -0.47391984231340      1.23578710201298      1.23410367351677
| 42> H          -2.61589448475022      2.48140107327864      1.30534730547376
| 43> H          -4.62916722704471      1.55704319189423      0.16499523284128
| 44> H          -4.49967994828211     -0.61043350047146     -1.05572841225155
| 45> H          -2.37320187697182     -1.85878167189054     -1.14547741375033
| 46> H           2.37313869360983     -1.85882668805983      1.14544868383589
| 47> *
| 48>
| 49>                          ****END OF INPUT****
 Total Charge           Charge          ....    1
 Multiplicity           Mult            ....    2
 Number of Electrons    NEL             ....   95
Dispersion correction           -0.010859001
FINAL SINGLE POINT ENERGY      -540.356055258901
Dispersion correction             ... done (  0.1 sec)
Dispersion correction           -0.010915667
FINAL SINGLE POINT ENERGY      -540.358034636210
Dispersion correction             ... done (  0.0 sec)
Dispersion correction           -0.010891910
FINAL SINGLE POINT ENERGY      -540.358035283530
Dispersion correction             ... done (  0.1 sec)
Dispersion correction           -0.010904085
FINAL SINGLE POINT ENERGY      -540.358134045884
Dispersion correction             ... done (  0.0 sec)
                    ***********************HURRAY********************

CARTESIAN COORDINATES (ANGSTROEM)
---------------------------------
  C      2.414061   -0.931693    0.559988
  C      1.256586   -0.380852   -0.026803
  C      1.347664    0.869900   -0.673189
  C      2.547686    1.545181   -0.718420
  C      3.674623    0.998584   -0.110342
  C      3.602419   -0.238135    0.530988
  H      4.479815   -0.651289    1.007206
  H      4.615289    1.530262   -0.145352
  H      2.615731    2.490509   -1.236982
  H      0.482583    1.271369   -1.180433
  C     -0.000005   -1.094040    0.000251
  C     -0.000012   -2.480825    0.000307
  H     -0.923348   -3.039244   -0.022771
  H      0.923308   -3.039267    0.023497
  C     -1.256615   -0.380859    0.027142
  C     -2.413870   -0.931514   -0.560230
  C     -3.602187   -0.237863   -0.531670
  C     -3.674594    0.998767    0.109793
  C     -2.547908    1.545148    0.718544
  C     -1.347945    0.869745    0.673765
  H     -0.483172    1.271060    1.181652
  H     -2.616098    2.490401    1.237230
  H     -4.615223    1.530533    0.144382
  H     -4.479375   -0.650857   -1.008414
  H     -2.357827   -1.878767   -1.076123
  H      2.358181   -1.879048    1.075709

 Multiplicity           Mult            ....    2
 Number of Electrons    NEL             ....   95
 Basis Dimension        Dim             ....  920

ORBITAL ENERGIES
----------------
                 SPIN UP ORBITALS
  NO   OCC          E(Eh)            E(eV)
   0   1.0000     -10.236624      -278.5527
   1   1.0000     -10.222035      -278.1557
   2   1.0000     -10.210501      -277.8419
   3   1.0000     -10.210499      -277.8418
   4   1.0000     -10.191680      -277.3297
   5   1.0000     -10.191669      -277.3294
   6   1.0000     -10.191450      -277.3235
   7   1.0000     -10.191416      -277.3225
   8   1.0000     -10.190216      -277.2899
   9   1.0000     -10.190213      -277.2898
  10   1.0000     -10.179805      -277.0066
  11   1.0000     -10.179802      -277.0065
  12   1.0000     -10.179319      -276.9933
  13   1.0000     -10.179312      -276.9932
  14   1.0000      -0.913990       -24.8709
  15   1.0000      -0.887525       -24.1508
  16   1.0000      -0.848290       -23.0831
  17   1.0000      -0.781157       -21.2564
  18   1.0000      -0.779887       -21.2218
  19   1.0000      -0.771519       -20.9941
  20   1.0000      -0.756475       -20.5847
  21   1.0000      -0.671179       -18.2637
  22   1.0000      -0.636251       -17.3133
  23   1.0000      -0.625739       -17.0272
  24   1.0000      -0.619349       -16.8533
  25   1.0000      -0.576353       -15.6834
  26   1.0000      -0.545903       -14.8548
  27   1.0000      -0.523685       -14.2502
  28   1.0000      -0.487492       -13.2653
  29   1.0000      -0.487267       -13.2592
  30   1.0000      -0.468159       -12.7393
  31   1.0000      -0.458714       -12.4822
  32   1.0000      -0.456991       -12.4354
  33   1.0000      -0.437007       -11.8916
  34   1.0000      -0.435734       -11.8569
  35   1.0000      -0.435416       -11.8483
  36   1.0000      -0.405841       -11.0435
  37   1.0000      -0.402789       -10.9605
  38   1.0000      -0.395879       -10.7724
  39   1.0000      -0.370127       -10.0717
  40   1.0000      -0.359632        -9.7861
  41   1.0000      -0.356190        -9.6924
  42   1.0000      -0.349296        -9.5048
  43   1.0000      -0.341746        -9.2994
  44   1.0000      -0.285385        -7.7657
  45   1.0000      -0.282509        -7.6875
  46   1.0000      -0.276616        -7.5271
  47   1.0000      -0.266548        -7.2531
  48   0.0000      -0.113159        -3.0792
  49   0.0000      -0.061534        -1.6744
  50   0.0000      -0.050878        -1.3845
  51   0.0000      -0.037336        -1.0160
  52   0.0000       0.005042         0.1372

                 SPIN DOWN ORBITALS
  NO   OCC          E(Eh)            E(eV)
   0   1.0000     -10.237432      -278.5747
   1   1.0000     -10.211757      -277.8760
   2   1.0000     -10.209331      -277.8100
   3   1.0000     -10.209329      -277.8100
   4   1.0000     -10.190275      -277.2915
   5   1.0000     -10.190241      -277.2905
   6   1.0000     -10.189360      -277.2666
   7   1.0000     -10.189350      -277.2663
   8   1.0000     -10.189165      -277.2613
   9   1.0000     -10.189162      -277.2612
  10   1.0000     -10.180451      -277.0242
  11   1.0000     -10.180448      -277.0241
  12   1.0000     -10.180053      -277.0133
  13   1.0000     -10.180046      -277.0131
  14   1.0000      -0.909806       -24.7571
  15   1.0000      -0.884376       -24.0651
  16   1.0000      -0.841803       -22.9066
  17   1.0000      -0.778559       -21.1857
  18   1.0000      -0.776798       -21.1378
  19   1.0000      -0.768695       -20.9173
  20   1.0000      -0.740820       -20.1587
  21   1.0000      -0.663266       -18.0484
  22   1.0000      -0.634112       -17.2551
  23   1.0000      -0.621922       -16.9233
  24   1.0000      -0.617616       -16.8062
  25   1.0000      -0.573314       -15.6007
  26   1.0000      -0.545362       -14.8401
  27   1.0000      -0.521319       -14.1858
  28   1.0000      -0.485940       -13.2231
  29   1.0000      -0.485325       -13.2064
  30   1.0000      -0.466553       -12.6956
  31   1.0000      -0.455634       -12.3984
  32   1.0000      -0.455231       -12.3875
  33   1.0000      -0.435976       -11.8635
  34   1.0000      -0.435191       -11.8422
  35   1.0000      -0.432933       -11.7807
  36   1.0000      -0.402970       -10.9654
  37   1.0000      -0.394874       -10.7451
  38   1.0000      -0.387788       -10.5522
  39   1.0000      -0.369713       -10.0604
  40   1.0000      -0.359314        -9.7774
  41   1.0000      -0.350495        -9.5375
  42   1.0000      -0.348175        -9.4743
  43   1.0000      -0.324627        -8.8335
  44   1.0000      -0.280873        -7.6429
  45   1.0000      -0.274619        -7.4728
  46   1.0000      -0.268435        -7.3045
  47   0.0000      -0.202509        -5.5105
  48   0.0000      -0.076559        -2.0833
  49   0.0000      -0.052440        -1.4270
  50   0.0000      -0.046046        -1.2530
  51   0.0000      -0.031853        -0.8668

MULLIKEN ATOMIC CHARGES AND SPIN POPULATIONS
--------------------------------------------
   0 C :   -1.123264    0.046454
   1 C :    2.632709    0.133226
   2 C :   -0.648241    0.065276
   3 C :   -1.055567   -0.054600
   4 C :   -0.126043    0.144238
   5 C :   -0.835523   -0.050472
   6 H :    0.517567   -0.000864
   7 H :    0.561339    0.004041
   8 H :    0.481997   -0.000818
   9 H :    0.092974    0.001034
  10 C :    0.799421   -0.121715
  11 C :   -1.105144    0.478081
  12 H :    0.264862    0.032284
  13 H :    0.264124    0.032236
  14 C :    2.624832    0.133017
  15 C :   -1.108187    0.046320
  16 C :   -0.838903   -0.050441
  17 C :   -0.125630    0.144225
  18 C :   -1.044708   -0.054720
  19 C :   -0.641906    0.065050
  20 H :    0.088930    0.001295
  21 H :    0.495345   -0.000916
  22 H :    0.527354    0.004253
  23 H :    0.512462   -0.000909
  24 H :   -0.104392    0.002293
  25 H :   -0.106407    0.002133
Sum of atomic charges         :    1.0000000

LOEWDIN ATOMIC CHARGES AND SPIN POPULATIONS
-------------------------------------------
   0 C :    0.255436    0.035549
   1 C :   -0.093607    0.052214
   2 C :    0.243936    0.039227
   3 C :    0.251377    0.009959
   4 C :    0.248834    0.061782
   5 C :    0.249262    0.011298
   6 H :   -0.162491   -0.003068
   7 H :   -0.157154    0.015516
   8 H :   -0.161619   -0.003418
   9 H :   -0.160936    0.007069
  10 C :   -0.055033    0.097127
  11 C :    0.698699    0.306257
  12 H :   -0.166991    0.065681
  13 H :   -0.167020    0.065681
  14 C :   -0.093637    0.052173
  15 C :    0.255437    0.035530
  16 C :    0.249247    0.011292
  17 C :    0.248827    0.061749
  18 C :    0.251378    0.009949
  19 C :    0.243837    0.039214
  20 H :   -0.160976    0.007066
  21 H :   -0.161603   -0.003418
  22 H :   -0.157170    0.015508
  23 H :   -0.162491   -0.003067
  24 H :   -0.167761    0.006567
  25 H :   -0.167782    0.006566

  Mayer bond orders larger than 0.100000
B(  0-C ,  1-C ) :  -0.3733 B(  0-C ,  2-C ) :  -0.8341 B(  0-C ,  3-C ) :   0.1078
B(  0-C ,  4-C ) :  -0.1583 B(  0-C ,  5-C ) :   1.3456 B(  0-C ,  6-H ) :  -0.1604
B(  0-C , 10-C ) :   0.3876 B(  0-C , 25-H ) :   1.8939 B(  1-C ,  2-C ) :   0.2460
B(  1-C ,  3-C ) :  -0.1704 B(  1-C ,  4-C ) :  -0.2261 B(  1-C , 10-C ) :  -0.1762
B(  1-C , 11-C ) :  -0.3625 B(  1-C , 14-C ) :  -0.2717 B(  1-C , 25-H ) :  -0.1738
B(  2-C ,  3-C ) :   1.3365 B(  2-C ,  9-H ) :   1.5038 B(  2-C , 10-C ) :   0.3408
B(  2-C , 11-C ) :   0.1127 B(  2-C , 19-C ) :   0.1353 B(  3-C ,  4-C ) :   1.2312
B(  3-C ,  5-C ) :   0.3434 B(  3-C ,  8-H ) :   0.4485 B(  3-C , 25-H ) :  -0.1166
B(  4-C ,  5-C ) :   1.0869 B(  4-C ,  7-H ) :   0.4824 B(  4-C , 10-C ) :   0.2061
B(  5-C ,  6-H ) :   0.4601 B(  5-C ,  9-H ) :  -0.1534 B(  5-C , 10-C ) :   0.1056
B(  9-H , 10-C ) :  -0.1258 B(  9-H , 25-H ) :   0.1786 B( 10-C , 11-C ) :   0.5548
B( 10-C , 14-C ) :  -0.1761 B( 10-C , 15-C ) :   0.3890 B( 10-C , 16-C ) :   0.1053
B( 10-C , 17-C ) :   0.2080 B( 10-C , 19-C ) :   0.3380 B( 10-C , 20-H ) :  -0.1253
B( 10-C , 24-H ) :  -0.2350 B( 10-C , 25-H ) :  -0.2344 B( 11-C , 12-H ) :   0.9606
B( 11-C , 13-H ) :   0.9611 B( 11-C , 14-C ) :  -0.3572 B( 11-C , 19-C ) :   0.1117
B( 14-C , 15-C ) :  -0.3680 B( 14-C , 17-C ) :  -0.2129 B( 14-C , 18-C ) :  -0.1600
B( 14-C , 19-C ) :   0.2497 B( 14-C , 24-H ) :  -0.1704 B( 15-C , 16-C ) :   1.3416
B( 15-C , 17-C ) :  -0.1775 B( 15-C , 18-C ) :   0.1005 B( 15-C , 19-C ) :  -0.8403
B( 15-C , 23-H ) :  -0.1564 B( 15-C , 24-H ) :   1.8842 B( 16-C , 17-C ) :   1.0823
B( 16-C , 18-C ) :   0.3543 B( 16-C , 20-H ) :  -0.1478 B( 16-C , 23-H ) :   0.4662
B( 17-C , 18-C ) :   1.2173 B( 17-C , 22-H ) :   0.5425 B( 18-C , 19-C ) :   1.3241
B( 18-C , 21-H ) :   0.4184 B( 18-C , 24-H ) :  -0.1133 B( 19-C , 20-H ) :   1.5024
B( 20-H , 24-H ) :   0.1794

Dispersion correction           -0.010904508
FINAL SINGLE POINT ENERGY      -540.358134030950

DIPOLE MOMENT
-------------

Method             : SCF
Type of density    : Electron Density
Multiplicity       :   2
Irrep              :   0
Energy             :  -540.3472295233571003 Eh
Relativity type    :
Basis              : AO
                                X                 Y                 Z
Electronic contribution:      0.000146301      -0.275473823      -0.000168116
Nuclear contribution   :     -0.000045706      -0.598852123      -0.000440336
                        -----------------------------------------
Total Dipole Moment    :      0.000100596      -0.874325946      -0.000608452
                        -----------------------------------------
Magnitude (a.u.)       :      0.874326163
Magnitude (Debye)      :      2.222360493

Rotational constants in cm-1:             0.054601             0.014379             0.012174
Rotational constants in MHz :          1636.908925           431.061765           364.958630

                             ****ORCA TERMINATED NORMALLY****
TOTAL RUN TIME: 0 days 1 hours 6 minutes 20 seconds 857 msec
