                         Program Version 6.0.0  -   RELEASE  -
|  1> !PBE0 def2-SV(p) Opt Freq d3 TightSCF SlowConv RIJCOSX defgrid2
|  2>
|  3> %pal
|  4> nprocs 4
|  5> end
|  6>
|  7> %scf
|  8> MaxIter 1500
|  9> end
| 10>
| 11> %maxcore 3000
| 12>
| 13>
| 14>
| 15> * xyz -1 2
| 16> C    -1.3714028   -1.2152054   -0.0000882
| 17> C     0.0015596   -1.2174295   -0.0000911
| 18> C     0.7171204   -0.0000088   -0.0000103
| 19> C     0.0015854    1.2174271    0.0000885
| 20> C    -1.3713771    1.2152317    0.0000960
| 21> C    -2.0435623    0.0000203    0.0000032
| 22> F    -3.4158908    0.0000349   -0.0000014
| 23> H    -1.9315530    2.1372962    0.0001725
| 24> H     0.5629586    2.1383570    0.0001583
| 25> N     2.0878299   -0.0000234   -0.0000103
| 26> O     2.7295061   -1.1125487   -0.0001042
| 27> O     2.7295297    1.1124883    0.0000277
| 28> H     0.5629137   -2.1383710   -0.0001611
| 29> H    -1.9315980   -2.1372582   -0.0001570
| 30> *
| 31>
| 32>                          ****END OF INPUT****
 Total Charge           Charge          ....   -1
 Multiplicity           Mult            ....    2
 Number of Electrons    NEL             ....   73
Dispersion correction           -0.012692682
FINAL SINGLE POINT ENERGY      -535.045181025867
Dispersion correction             ... done (  0.1 sec)
Dispersion correction           -0.012660640
FINAL SINGLE POINT ENERGY      -535.047881174961
Dispersion correction             ... done (  0.0 sec)
Dispersion correction           -0.012652745
FINAL SINGLE POINT ENERGY      -535.048169159595
Dispersion correction             ... done (  0.1 sec)
Dispersion correction           -0.012652826
FINAL SINGLE POINT ENERGY      -535.048187089995
Dispersion correction             ... done (  0.1 sec)
Dispersion correction           -0.012653856
FINAL SINGLE POINT ENERGY      -535.048190854065
Dispersion correction             ... done (  0.1 sec)
                    ***********************HURRAY********************

CARTESIAN COORDINATES (ANGSTROEM)
---------------------------------
  C     -1.378831   -1.215174   -0.000089
  C      0.007298   -1.222957   -0.000289
  C      0.729934   -0.000006   -0.000303
  C      0.007322    1.222960   -0.000104
  C     -1.378809    1.215201    0.000091
  C     -2.069465    0.000020    0.000105
  F     -3.425670    0.000030    0.000313
  H     -1.949417    2.149904    0.000237
  H      0.584439    2.148169   -0.000120
  N      2.118083   -0.000025   -0.000362
  O      2.723877   -1.107712    0.000406
  O      2.723916    1.107639    0.000561
  H      0.584399   -2.148173   -0.000443
  H     -1.949457   -2.149866   -0.000080

 Multiplicity           Mult            ....    2
 Number of Electrons    NEL             ....   73
 Basis Dimension        Dim             ....  148

ORBITAL ENERGIES
----------------
                 SPIN UP ORBITALS
  NO   OCC          E(Eh)            E(eV)
   0   1.0000     -24.641409      -670.5268
   1   1.0000     -18.990768      -516.7651
   2   1.0000     -18.990734      -516.7642
   3   1.0000     -14.363935      -390.8625
   4   1.0000     -10.160280      -276.4753
   5   1.0000     -10.100960      -274.8611
   6   1.0000     -10.095788      -274.7204
   7   1.0000     -10.095779      -274.7201
   8   1.0000     -10.085515      -274.4408
   9   1.0000     -10.085501      -274.4404
  10   1.0000      -1.092967       -29.7411
  11   1.0000      -0.990988       -26.9662
  12   1.0000      -0.814416       -22.1614
  13   1.0000      -0.731120       -19.8948
  14   1.0000      -0.643196       -17.5023
  15   1.0000      -0.622746       -16.9458
  16   1.0000      -0.537747       -14.6329
  17   1.0000      -0.486800       -13.2465
  18   1.0000      -0.440992       -12.0000
  19   1.0000      -0.414489       -11.2788
  20   1.0000      -0.361299        -9.8315
  21   1.0000      -0.347860        -9.4657
  22   1.0000      -0.346166        -9.4197
  23   1.0000      -0.330767        -9.0006
  24   1.0000      -0.312607        -8.5065
  25   1.0000      -0.297754        -8.1023
  26   1.0000      -0.295251        -8.0342
  27   1.0000      -0.271614        -7.3910
  28   1.0000      -0.261499        -7.1157
  29   1.0000      -0.224798        -6.1171
  30   1.0000      -0.204058        -5.5527
  31   1.0000      -0.134225        -3.6524
  32   1.0000      -0.113267        -3.0821
  33   1.0000      -0.110291        -3.0012
  34   1.0000      -0.101409        -2.7595
  35   1.0000      -0.074401        -2.0245
  36   1.0000       0.033349         0.9075
  37   0.0000       0.138148         3.7592
  38   0.0000       0.181895         4.9496
  39   0.0000       0.209664         5.7053
  40   0.0000       0.237987         6.4759
  41   0.0000       0.280491         7.6326

                 SPIN DOWN ORBITALS
  NO   OCC          E(Eh)            E(eV)
   0   1.0000     -24.640563      -670.5038
   1   1.0000     -18.984961      -516.6071
   2   1.0000     -18.984924      -516.6061
   3   1.0000     -14.358352      -390.7106
   4   1.0000     -10.155934      -276.3570
   5   1.0000     -10.100294      -274.8430
   6   1.0000     -10.097309      -274.7618
   7   1.0000     -10.097300      -274.7615
   8   1.0000     -10.082961      -274.3713
   9   1.0000     -10.082945      -274.3709
  10   1.0000      -1.090807       -29.6824
  11   1.0000      -0.979944       -26.6656
  12   1.0000      -0.803305       -21.8590
  13   1.0000      -0.727630       -19.7998
  14   1.0000      -0.635878       -17.3031
  15   1.0000      -0.620468       -16.8838
  16   1.0000      -0.527426       -14.3520
  17   1.0000      -0.484565       -13.1857
  18   1.0000      -0.438042       -11.9197
  19   1.0000      -0.412474       -11.2240
  20   1.0000      -0.359556        -9.7840
  21   1.0000      -0.339670        -9.2429
  22   1.0000      -0.337188        -9.1753
  23   1.0000      -0.311278        -8.4703
  24   1.0000      -0.299655        -8.1540
  25   1.0000      -0.297319        -8.0905
  26   1.0000      -0.289480        -7.8772
  27   1.0000      -0.268970        -7.3190
  28   1.0000      -0.258707        -7.0398
  29   1.0000      -0.214222        -5.8293
  30   1.0000      -0.202789        -5.5182
  31   1.0000      -0.125344        -3.4108
  32   1.0000      -0.095868        -2.6087
  33   1.0000      -0.094608        -2.5744
  34   1.0000      -0.068745        -1.8706
  35   1.0000      -0.066825        -1.8184
  36   0.0000       0.124487         3.3875
  37   0.0000       0.144052         3.9199
  38   0.0000       0.210145         5.7183
  39   0.0000       0.217863         5.9283
  40   0.0000       0.237729         6.4689

MULLIKEN ATOMIC CHARGES AND SPIN POPULATIONS
--------------------------------------------
   0 C :   -0.207243   -0.116513
   1 C :   -0.166934    0.195248
   2 C :    0.158074    0.007075
   3 C :   -0.166932    0.195250
   4 C :   -0.207246   -0.116514
   5 C :    0.314092    0.252541
   6 F :   -0.264286    0.011119
   7 H :    0.053087    0.004743
   8 H :    0.071743   -0.011295
   9 N :    0.181652    0.190042
  10 O :   -0.445419    0.197428
  11 O :   -0.445418    0.197428
  12 H :    0.071743   -0.011295
  13 H :    0.053087    0.004743
Sum of atomic charges         :   -1.0000000

LOEWDIN ATOMIC CHARGES AND SPIN POPULATIONS
-------------------------------------------
   0 C :   -0.182824   -0.064224
   1 C :   -0.158901    0.143573
   2 C :   -0.077673    0.052231
   3 C :   -0.158901    0.143574
   4 C :   -0.182824   -0.064224
   5 C :    0.005179    0.195519
   6 F :   -0.120463    0.018115
   7 H :    0.114558    0.002161
   8 H :    0.127701   -0.005266
   9 N :    0.201671    0.192822
  10 O :   -0.404891    0.194412
  11 O :   -0.404891    0.194412
  12 H :    0.127701   -0.005266
  13 H :    0.114558    0.002161

  Mayer bond orders larger than 0.100000
B(  0-C ,  1-C ) :   1.3636 B(  0-C ,  5-C ) :   1.3122 B(  0-C , 13-H ) :   0.9638
B(  1-C ,  2-C ) :   1.2796 B(  1-C , 12-H ) :   0.9443 B(  2-C ,  3-C ) :   1.2796
B(  2-C ,  9-N ) :   1.0994 B(  3-C ,  4-C ) :   1.3636 B(  3-C ,  8-H ) :   0.9443
B(  4-C ,  5-C ) :   1.3122 B(  4-C ,  7-H ) :   0.9638 B(  5-C ,  6-F ) :   0.9911
B(  9-N , 10-O ) :   1.3376 B(  9-N , 11-O ) :   1.3376 B( 10-O , 11-O ) :   0.1689

Dispersion correction           -0.012654230
FINAL SINGLE POINT ENERGY      -535.048191106865

DIPOLE MOMENT
-------------

Method             : SCF
Type of density    : Electron Density
Multiplicity       :   2
Irrep              :   0
Energy             :  -535.0355368771710118 Eh
Relativity type    :
Basis              : AO
                                X                 Y                 Z
Electronic contribution:     -3.167113764       0.000021876       0.000069699
Nuclear contribution   :      0.705808692       0.000011450      -0.000838371
                        -----------------------------------------
Total Dipole Moment    :     -2.461305073       0.000033326      -0.000768673
                        -----------------------------------------
Magnitude (a.u.)       :      2.461305193
Magnitude (Debye)      :      6.256140617

VIBRATIONAL FREQUENCIES
-----------------------

Scaling factor for frequencies =  1.000000000  (already applied!)

     0:       0.00 cm**-1
     1:       0.00 cm**-1
     2:       0.00 cm**-1
     3:       0.00 cm**-1
     4:       0.00 cm**-1
     5:       0.00 cm**-1
     6:     109.83 cm**-1
     7:     120.88 cm**-1
     8:     224.17 cm**-1
     9:     292.26 cm**-1
    10:     364.17 cm**-1
    11:     399.96 cm**-1
    12:     417.38 cm**-1
    13:     453.36 cm**-1
    14:     545.47 cm**-1
    15:     592.99 cm**-1
    16:     628.62 cm**-1
    17:     640.52 cm**-1
    18:     689.49 cm**-1
    19:     766.00 cm**-1
    20:     788.04 cm**-1
    21:     791.85 cm**-1
    22:     860.39 cm**-1
    23:     937.11 cm**-1
    24:     949.67 cm**-1
    25:     995.25 cm**-1
    26:    1077.81 cm**-1
    27:    1096.89 cm**-1
    28:    1170.86 cm**-1
    29:    1262.94 cm**-1
    30:    1267.75 cm**-1
    31:    1393.10 cm**-1
    32:    1447.76 cm**-1
    33:    1457.55 cm**-1
    34:    1511.58 cm**-1
    35:    1548.56 cm**-1
    36:    1578.30 cm**-1
    37:    1682.63 cm**-1
    38:    3188.66 cm**-1
    39:    3188.85 cm**-1
    40:    3247.44 cm**-1
    41:    3249.44 cm**-1

IR SPECTRUM
-----------

 Mode   freq       eps      Int      T**2         TX        TY        TZ
       cm**-1   L/(mol*cm) km/mol    a.u.
----------------------------------------------------------------------------
  6:    109.83   0.000700    3.54  0.001989  (-0.000012 -0.000007  0.044596)
  7:    120.88   0.000000    0.00  0.000000  (-0.000002 -0.000019  0.000002)
  8:    224.17   0.000356    1.80  0.000495  (-0.000000  0.022248  0.000002)
  9:    292.26   0.000114    0.57  0.000121  (-0.000010  0.000010 -0.011018)
 10:    364.17   0.000391    1.97  0.000335  ( 0.018297  0.000002  0.000031)
 11:    399.96   0.000295    1.49  0.000230  ( 0.000000 -0.015171 -0.000001)
 12:    417.38   0.000617    3.12  0.000461  (-0.000101  0.000003  0.021475)
 13:    453.36   0.000000    0.00  0.000000  (-0.000001  0.000027 -0.000000)
 14:    545.47   0.000139    0.70  0.000079  ( 0.000004  0.008916  0.000003)
 15:    592.99   0.004005   20.24  0.002108  ( 0.000293 -0.000004  0.045909)
 16:    628.62   0.004610   23.30  0.002289  ( 0.047839 -0.000001  0.000096)
 17:    640.52   0.000063    0.32  0.000031  (-0.000006  0.005524 -0.000001)
 18:    689.49   0.000525    2.65  0.000237  ( 0.000211 -0.000000  0.015409)
 19:    766.00   0.017516   88.52  0.007136  (-0.084474  0.000000  0.000115)
 20:    788.04   0.000000    0.00  0.000000  ( 0.000003 -0.000028 -0.000073)
 21:    791.85   0.009771   49.38  0.003851  ( 0.000014 -0.000007  0.062056)
 22:    860.39   0.003096   15.65  0.001123  ( 0.033509  0.000000  0.000004)
 23:    937.11   0.000126    0.64  0.000042  ( 0.000023  0.000001  0.006487)
 24:    949.67   0.000000    0.00  0.000000  (-0.000001  0.000021  0.000000)
 25:    995.25   0.000015    0.08  0.000005  (-0.002175 -0.000002 -0.000002)
 26:   1077.81   0.005802   29.32  0.001680  ( 0.000032  0.040987  0.000003)
 27:   1096.89   0.020119  101.67  0.005724  (-0.075657  0.000020 -0.000004)
 28:   1170.86   0.027232  137.62  0.007258  ( 0.085194 -0.000000  0.000008)
 29:   1262.94   0.000102    0.52  0.000025  (-0.000003 -0.005023 -0.000001)
 30:   1267.75   0.005454   27.56  0.001343  ( 0.036640 -0.000001 -0.000013)
 31:   1393.10   0.000057    0.29  0.000013  ( 0.000003 -0.003565 -0.000000)
 32:   1447.76   0.096531  487.83  0.020807  (-0.144247  0.000002 -0.000013)
 33:   1457.55   0.016683   84.31  0.003572  ( 0.000002 -0.059764 -0.000004)
 34:   1511.58   0.025635  129.55  0.005292  (-0.000004 -0.072748 -0.000005)
 35:   1548.56   0.000154    0.78  0.000031  (-0.005573  0.000003  0.000016)
 36:   1578.30   0.004476   22.62  0.000885  (-0.000002 -0.029749 -0.000002)
 37:   1682.63   0.000115    0.58  0.000021  (-0.004612  0.000000  0.000000)
 38:   3188.66   0.005446   27.52  0.000533  (-0.000670 -0.023076 -0.000002)
 39:   3188.85   0.004610   23.29  0.000451  ( 0.021226 -0.000728 -0.000002)
 40:   3247.44   0.000204    1.03  0.000020  (-0.000021  0.004431  0.000000)
 41:   3249.44   0.000174    0.88  0.000017  (-0.004083 -0.000021 -0.000001)

--------------------------
THERMOCHEMISTRY AT 298.15K
--------------------------

Temperature         ...   298.15 K
Pressure            ...     1.00 atm
Total Mass          ...   141.10 AMU
Quasi RRHO          ...     True
Cut-Off Frequency   ...     1.00 cm^-1

Throughout the following assumptions are being made:
  (1) The electronic state is orbitally nondegenerate
      but the spin degeneracy is treated
  (2) There are no thermally accessible electronically excited states
  (3) Hindered rotations indicated by low frequency modes are not
      treated as such but are treated as vibrations and this may
      cause some error
  (4) All equations used are the standard statistical mechanics
      equations for an ideal gas
  (5) All vibrations are strictly harmonic

freq.     109.83  E(vib)   ...       0.45
freq.     120.88  E(vib)   ...       0.44
freq.     224.17  E(vib)   ...       0.33
freq.     292.26  E(vib)   ...       0.27
freq.     364.17  E(vib)   ...       0.22
freq.     399.96  E(vib)   ...       0.19
freq.     417.38  E(vib)   ...       0.18
freq.     453.36  E(vib)   ...       0.16
freq.     545.47  E(vib)   ...       0.12
freq.     592.99  E(vib)   ...       0.10
freq.     628.62  E(vib)   ...       0.09
freq.     640.52  E(vib)   ...       0.09
freq.     689.49  E(vib)   ...       0.07
freq.     766.00  E(vib)   ...       0.06
freq.     788.04  E(vib)   ...       0.05
freq.     791.85  E(vib)   ...       0.05
freq.     860.39  E(vib)   ...       0.04
freq.     937.11  E(vib)   ...       0.03
freq.     949.67  E(vib)   ...       0.03
freq.     995.25  E(vib)   ...       0.02
freq.    1077.81  E(vib)   ...       0.02
freq.    1096.89  E(vib)   ...       0.02
freq.    1170.86  E(vib)   ...       0.01
freq.    1262.94  E(vib)   ...       0.01
freq.    1267.75  E(vib)   ...       0.01
freq.    1393.10  E(vib)   ...       0.00
freq.    1447.76  E(vib)   ...       0.00
freq.    1457.55  E(vib)   ...       0.00
freq.    1511.58  E(vib)   ...       0.00
freq.    1548.56  E(vib)   ...       0.00
freq.    1578.30  E(vib)   ...       0.00
freq.    1682.63  E(vib)   ...       0.00
freq.    3188.66  E(vib)   ...       0.00
freq.    3188.85  E(vib)   ...       0.00
freq.    3247.44  E(vib)   ...       0.00
freq.    3249.44  E(vib)   ...       0.00

------------
INNER ENERGY
------------

The inner energy is: U= E(el) + E(ZPE) + E(vib) + E(rot) + E(trans)
    E(el)   - is the total energy from the electronic structure calculation
              = E(kin-el) + E(nuc-el) + E(el-el) + E(nuc-nuc)
    E(ZPE)  - the the zero temperature vibrational energy from the frequency calculation
    E(vib)  - the the finite temperature correction to E(ZPE) due to population
              of excited vibrational states
    E(rot)  - is the rotational thermal energy
    E(trans)- is the translational thermal energy

Summary of contributions to the inner energy U:
Electronic energy                ...   -535.04819111 Eh
Zero point energy                ...      0.09326260 Eh      58.52 kcal/mol
Thermal vibrational correction   ...      0.00490623 Eh       3.08 kcal/mol
Thermal rotational correction    ...      0.00141627 Eh       0.89 kcal/mol
Thermal translational correction ...      0.00141627 Eh       0.89 kcal/mol
-----------------------------------------------------------------------
Total thermal energy                   -534.94718973 Eh

Summary of corrections to the electronic energy:
(perhaps to be used in another calculation)
Total thermal correction                  0.00773877 Eh       4.86 kcal/mol
Non-thermal (ZPE) correction              0.09326260 Eh      58.52 kcal/mol
-----------------------------------------------------------------------
Total correction                          0.10100138 Eh      63.38 kcal/mol

--------
ENTHALPY
--------

The enthalpy is H = U + kB*T
                kB is Boltzmann's constant
Total thermal energy              ...   -534.94718973 Eh
Thermal Enthalpy correction       ...      0.00094421 Eh       0.59 kcal/mol
-----------------------------------------------------------------------
Total Enthalpy                    ...   -534.94624552 Eh

Note: Rotational entropy computed according to Herzberg
Infrared and Raman Spectra, Chapter V,1, Van Nostrand Reinhold, 1945
Point Group:  Cs, Symmetry Number:   1
Rotational constants in cm-1:     0.130395     0.026545     0.022055

Vibrational entropy computed according to the QRRHO of S. Grimme
Chem.Eur.J. 2012 18 9955 using a reference frequency of 100.0 cm-1

-------
ENTROPY
-------

The entropy contributions are T*S = T*(S(el)+S(vib)+S(rot)+S(trans))
     S(el)   - electronic entropy
     S(vib)  - vibrational entropy
     S(rot)  - rotational entropy
     S(trans)- translational entropy
The entropies will be listed as multiplied by the temperature to get
units of energy

Electronic entropy                ...      0.00065446 Eh      0.41 kcal/mol
Vibrational entropy               ...      0.00797451 Eh      5.00 kcal/mol
Rotational entropy                ...      0.01398637 Eh      8.78 kcal/mol
Translational entropy             ...      0.01935887 Eh     12.15 kcal/mol
-----------------------------------------------------------------------
Final entropy term                ...      0.04197421 Eh     26.34 kcal/mol

In case the symmetry of your molecule has not been determined correctly
or in case you have a reason to use a different symmetry number we print
out the resulting rotational entropy values for sn=1,12:

 non-linear molecules -----------------------------------
|  sn= 1 | S(rot)=       0.01398637 Eh      8.78 kcal/mol|
|  sn= 2 | S(rot)=       0.01333192 Eh      8.37 kcal/mol|
|  sn= 3 | S(rot)=       0.01294908 Eh      8.13 kcal/mol|
|  sn= 4 | S(rot)=       0.01267746 Eh      7.96 kcal/mol|
|  sn= 5 | S(rot)=       0.01246677 Eh      7.82 kcal/mol|
|  sn= 6 | S(rot)=       0.01229463 Eh      7.71 kcal/mol|
|  sn= 7 | S(rot)=       0.01214908 Eh      7.62 kcal/mol|
|  sn= 8 | S(rot)=       0.01202300 Eh      7.54 kcal/mol|
|  sn= 9 | S(rot)=       0.01191180 Eh      7.47 kcal/mol|
|  sn=10 | S(rot)=       0.01181232 Eh      7.41 kcal/mol|
|  sn=11 | S(rot)=       0.01172233 Eh      7.36 kcal/mol|
|  sn=12 | S(rot)=       0.01164017 Eh      7.30 kcal/mol|
 linear molecules ---------------------------------------
|  Dinfh | S(rot)=       0.00892711 Eh      5.60 kcal/mol|
|  Cinfv | S(rot)=       0.00958156 Eh      6.01 kcal/mol|
 --------------------------------------------------------

-------------------
GIBBS FREE ENERGY
-------------------

The Gibbs free energy is G = H - T*S

Total enthalpy                    ...   -534.94624552 Eh
Total entropy correction          ...     -0.04197421 Eh    -26.34 kcal/mol
-----------------------------------------------------------------------
Final Gibbs free energy         ...   -534.98821973 Eh

                             ****ORCA TERMINATED NORMALLY****
TOTAL RUN TIME: 0 days 0 hours 9 minutes 17 seconds 79 msec
