                         Program Version 6.0.0  -   RELEASE  -
|  1> !r2SCAN aug-cc-pVTZ d3 TightSCF SlowConv RIJCOSX defgrid2
|  2>
|  3> %pal
|  4> nprocs 4
|  5> end
|  6>
|  7> %scf
|  8> MaxIter 1500
|  9> end
| 10>
| 11> %maxcore 3000
| 12>
| 13> !CPCM
| 14> %cpcm smd true
| 15> SMDsolvent "MeCN"
| 16> surfacetype gepol_ses
| 17> rsolv 2.19
| 18> end
| 19>
| 20> * xyz 0 1
| 21> C          -0.69471715027891      1.20160424367180      0.00254330764544
| 22> C           0.69612063581105      1.19291899288814      0.00968566042107
| 23> C           1.42778733631965      0.00018404946816      0.01007822944484
| 24> C           2.93063058367763     -0.00027863689039     -0.01829178119376
| 25> H           3.34402418608942      0.90078695962724      0.46603728071123
| 26> H           3.31730142827762     -0.02014085009214     -1.05503454463859
| 27> H           3.34459568522108     -0.88206330588670      0.50008328858434
| 28> C           0.69618993551697     -1.19280776592252      0.00927470210724
| 29> C          -0.69448057691314     -1.20162515498911      0.00211243242400
| 30> C          -1.42112887903605      0.00001156196422     -0.00389874102897
| 31> N          -2.80457629708089     -0.00021726257641     -0.05900293362540
| 32> H          -3.26571318600359     -0.84658941152166      0.25460910629618
| 33> H          -3.26597866165769      0.84602614670405      0.25456635083211
| 34> H          -1.23244316710201     -2.15552812692684      0.00133757208656
| 35> H           1.23001055078301     -2.14947021386169      0.01854947119546
| 36> H           1.22985485991374      2.14960675922401      0.01926471808220
| 37> H          -1.23272228353791      2.15547551511983      0.00212038065604
| 38> *
| 39>
| 40>                          ****END OF INPUT****

CARTESIAN COORDINATES (ANGSTROEM)
---------------------------------
  C     -0.694717    1.201604    0.002543
  C      0.696121    1.192919    0.009686
  C      1.427787    0.000184    0.010078
  C      2.930631   -0.000279   -0.018292
  H      3.344024    0.900787    0.466037
  H      3.317301   -0.020141   -1.055035
  H      3.344596   -0.882063    0.500083
  C      0.696190   -1.192808    0.009275
  C     -0.694481   -1.201625    0.002112
  C     -1.421129    0.000012   -0.003899
  N     -2.804576   -0.000217   -0.059003
  H     -3.265713   -0.846589    0.254609
  H     -3.265979    0.846026    0.254566
  H     -1.232443   -2.155528    0.001338
  H      1.230011   -2.149470    0.018549
  H      1.229855    2.149607    0.019265
  H     -1.232722    2.155476    0.002120

 Total Charge           Charge          ....    0
 Multiplicity           Mult            ....    1
 Number of Electrons    NEL             ....   58
 Basis Dimension        Dim             ....  575

ORBITAL ENERGIES
----------------

  NO   OCC          E(Eh)            E(eV)
   0   2.0000     -14.162441      -385.3796
   1   2.0000     -10.074999      -274.1547
   2   2.0000     -10.035474      -273.0791
   3   2.0000     -10.032671      -273.0028
   4   2.0000     -10.032642      -273.0021
   5   2.0000     -10.029462      -272.9155
   6   2.0000     -10.029400      -272.9138
   7   2.0000     -10.024050      -272.7683
   8   2.0000      -0.880635       -23.9633
   9   2.0000      -0.805099       -21.9078
  10   2.0000      -0.717891       -19.5348
  11   2.0000      -0.707052       -19.2399
  12   2.0000      -0.635401       -17.2901
  13   2.0000      -0.575776       -15.6676
  14   2.0000      -0.545590       -14.8463
  15   2.0000      -0.481938       -13.1142
  16   2.0000      -0.471452       -12.8289
  17   2.0000      -0.423468       -11.5232
  18   2.0000      -0.400807       -10.9065
  19   2.0000      -0.389690       -10.6040
  20   2.0000      -0.380891       -10.3646
  21   2.0000      -0.377386       -10.2692
  22   2.0000      -0.349613        -9.5135
  23   2.0000      -0.339333        -9.2337
  24   2.0000      -0.317342        -8.6353
  25   2.0000      -0.296239        -8.0611
  26   2.0000      -0.277302        -7.5458
  27   2.0000      -0.234472        -6.3803
  28   2.0000      -0.180787        -4.9195
  29   0.0000      -0.034085        -0.9275
  30   0.0000      -0.014824        -0.4034
  31   0.0000       0.007562         0.2058
  32   0.0000       0.018973         0.5163
  33   0.0000       0.026087         0.7099

MULLIKEN ATOMIC CHARGES
-----------------------
   0 C :   -0.874233
   1 C :   -0.814460
   2 C :    1.547228
   3 C :   -0.702166
   4 H :    0.193088
   5 H :    0.225463
   6 H :    0.193716
   7 C :   -0.827679
   8 C :   -0.880831
   9 C :    1.344928
  10 N :   -0.629200
  11 H :    0.037443
  12 H :    0.037068
  13 H :    0.441913
  14 H :    0.135007
  15 H :    0.127933
  16 H :    0.444783
Sum of atomic charges:   -0.0000000

LOEWDIN ATOMIC CHARGES
----------------------
   0 C :    0.202608
   1 C :    0.183841
   2 C :   -0.162767
   3 C :    0.560410
   4 H :   -0.169409
   5 H :   -0.156764
   6 H :   -0.168769
   7 C :    0.183837
   8 C :    0.202619
   9 C :   -0.275396
  10 N :    0.852503
  11 H :   -0.286784
  12 H :   -0.286772
  13 H :   -0.170838
  14 H :   -0.168532
  15 H :   -0.168919
  16 H :   -0.170869

  Mayer bond orders larger than 0.100000
B(  0-C ,  1-C ) :   1.1746 B(  0-C ,  2-C ) :   0.2328 B(  0-C ,  7-C ) :  -0.1536
B(  0-C ,  8-C ) :   0.3424 B(  0-C ,  9-C ) :   0.6861 B(  0-C , 16-H ) :   0.4018
B(  1-C ,  2-C ) :   0.3403 B(  1-C ,  3-C ) :   0.1525 B(  1-C ,  7-C ) :  -0.1767
B(  1-C ,  8-C ) :  -0.1440 B(  1-C ,  9-C ) :  -0.2503 B(  1-C , 15-H ) :   1.1467
B(  2-C ,  3-C ) :   0.1835 B(  2-C ,  7-C ) :   0.3403 B(  2-C ,  8-C ) :   0.2292
B(  2-C ,  9-C ) :   0.1903 B(  3-C ,  4-H ) :   0.9961 B(  3-C ,  5-H ) :   0.9653
B(  3-C ,  6-H ) :   0.9971 B(  3-C ,  7-C ) :   0.1727 B(  7-C ,  8-C ) :   1.1812
B(  7-C ,  9-C ) :  -0.2493 B(  7-C , 14-H ) :   1.1334 B(  8-C ,  9-C ) :   0.6899
B(  8-C , 13-H ) :   0.4068 B(  9-C , 10-N ) :   0.3532 B(  9-C , 13-H ) :   0.1556
B(  9-C , 16-H ) :   0.1571 B( 10-N , 11-H ) :   1.1047 B( 10-N , 12-H ) :   1.1051

Dispersion correction           -0.004836588
FINAL SINGLE POINT ENERGY      -326.866915445000

DIPOLE MOMENT
-------------

Method             : SCF
Type of density    : Electron Density
Multiplicity       :   1
Irrep              :   0
Energy             :  -326.8620788567035902 Eh
Relativity type    :
Basis              : AO
                                X                 Y                 Z
Electronic contribution:     -3.920545925      -0.000357295      -0.013541822
Nuclear contribution   :      3.276071104      -0.001396692       0.450262688
                        -----------------------------------------
Total Dipole Moment    :     -0.644474821      -0.001753986       0.436720867
                        -----------------------------------------
Magnitude (a.u.)       :      0.778508823
Magnitude (Debye)      :      1.978812168

Rotational constants in cm-1:             0.182492             0.048394             0.038562
Rotational constants in MHz :          5470.963839          1450.824170          1156.068201

                             ****ORCA TERMINATED NORMALLY****
TOTAL RUN TIME: 0 days 0 hours 2 minutes 39 seconds 747 msec
