                         Program Version 6.0.0  -   RELEASE  -
|  1> !r2SCAN freq aug-cc-pVTZ d3 TightSCF SlowConv RIJCOSX defgrid2
|  2>
|  3> %pal
|  4> nprocs 12
|  5> end
|  6>
|  7> %scf
|  8> MaxIter 1500
|  9> end
| 10>
| 11> %maxcore 5000
| 12>
| 13> !CPCM
| 14> %cpcm smd true
| 15> SMDsolvent "MeCN"
| 16> surfacetype gepol_ses
| 17> rsolv 2.19
| 18> end
| 19>
| 20> * xyz -1 2
| 21> C          -1.21552641304060     -0.03915748393913      0.00000570968935
| 22> C          -1.21818401284627      1.41246747975617     -0.00019916168077
| 23> C           0.00004575194503      2.07821608681340     -0.00000383617160
| 24> C           1.21824479268325      1.41241105503140      0.00019938304063
| 25> C           1.21552073871961     -0.03921433859228      0.00000659774519
| 26> C          -0.00001914115867     -0.72712237035481      0.00000924617106
| 27> H          -0.00004478660462     -1.81101100709407      0.00001482545438
| 28> C           2.41487952819885     -0.76118289525882     -0.00016104638652
| 29> N           3.42852427482002     -1.34414683476652     -0.00030758239841
| 30> H           2.15600016066914      1.95129429915732      0.00085572108260
| 31> H           0.00007111085318      3.16389487142419     -0.00000899244407
| 32> H          -2.15591457124299      1.95139391880307     -0.00086432307774
| 33> C          -2.41491830490206     -0.76107153731095      0.00017906911949
| 34> N          -3.42858822809389     -1.34399154366899      0.00032528985641
| 35> *
| 36>
| 37>                          ****END OF INPUT****

CARTESIAN COORDINATES (ANGSTROEM)
---------------------------------
  C     -1.215526   -0.039157    0.000006
  C     -1.218184    1.412467   -0.000199
  C      0.000046    2.078216   -0.000004
  C      1.218245    1.412411    0.000199
  C      1.215521   -0.039214    0.000007
  C     -0.000019   -0.727122    0.000009
  H     -0.000045   -1.811011    0.000015
  C      2.414880   -0.761183   -0.000161
  N      3.428524   -1.344147   -0.000308
  H      2.156000    1.951294    0.000856
  H      0.000071    3.163895   -0.000009
  H     -2.155915    1.951394   -0.000864
  C     -2.414918   -0.761072    0.000179
  N     -3.428588   -1.343992    0.000325

 Total Charge           Charge          ....   -1
 Multiplicity           Mult            ....    2
 Number of Electrons    NEL             ....   67
 Basis Dimension        Dim             ....  552

ORBITAL ENERGIES
----------------
                 SPIN UP ORBITALS
  NO   OCC          E(Eh)            E(eV)
   0   1.0000     -14.141539      -384.8108
   1   1.0000     -14.141537      -384.8108
   2   1.0000     -10.061864      -273.7972
   3   1.0000     -10.061859      -273.7971
   4   1.0000     -10.051466      -273.5143
   5   1.0000     -10.051253      -273.5085
   6   1.0000     -10.050787      -273.4958
   7   1.0000     -10.028643      -272.8932
   8   1.0000     -10.023832      -272.7623
   9   1.0000     -10.023818      -272.7620
  10   1.0000      -0.860988       -23.4287
  11   1.0000      -0.857198       -23.3255
  12   1.0000      -0.814719       -22.1696
  13   1.0000      -0.731849       -19.9146
  14   1.0000      -0.720794       -19.6138
  15   1.0000      -0.608044       -16.5457
  16   1.0000      -0.594333       -16.1726
  17   1.0000      -0.527935       -14.3659
  18   1.0000      -0.451077       -12.2744
  19   1.0000      -0.439389       -11.9564
  20   1.0000      -0.418006       -11.3745
  21   1.0000      -0.390038       -10.6135
  22   1.0000      -0.372203       -10.1282
  23   1.0000      -0.339746        -9.2450
  24   1.0000      -0.338429        -9.2091
  25   1.0000      -0.336145        -9.1470
  26   1.0000      -0.323134        -8.7929
  27   1.0000      -0.321496        -8.7483
  28   1.0000      -0.300442        -8.1754
  29   1.0000      -0.293484        -7.9861
  30   1.0000      -0.288841        -7.8598
  31   1.0000      -0.238946        -6.5020
  32   1.0000      -0.232101        -6.3158
  33   1.0000      -0.091806        -2.4982
  34   0.0000      -0.054716        -1.4889
  35   0.0000       0.001998         0.0544
  36   0.0000       0.005000         0.1361
  37   0.0000       0.015796         0.4298
  38   0.0000       0.023219         0.6318

                 SPIN DOWN ORBITALS
  NO   OCC          E(Eh)            E(eV)
   0   1.0000     -14.139233      -384.7481
   1   1.0000     -14.139232      -384.7481
   2   1.0000     -10.061620      -273.7906
   3   1.0000     -10.061615      -273.7905
   4   1.0000     -10.051653      -273.5194
   5   1.0000     -10.049577      -273.4629
   6   1.0000     -10.049538      -273.4618
   7   1.0000     -10.031045      -272.9586
   8   1.0000     -10.017281      -272.5841
   9   1.0000     -10.017280      -272.5840
  10   1.0000      -0.857519       -23.3343
  11   1.0000      -0.853929       -23.2366
  12   1.0000      -0.809999       -22.0412
  13   1.0000      -0.723474       -19.6867
  14   1.0000      -0.716916       -19.5083
  15   1.0000      -0.594023       -16.1642
  16   1.0000      -0.592486       -16.1224
  17   1.0000      -0.527419       -14.3518
  18   1.0000      -0.445697       -12.1280
  19   1.0000      -0.437394       -11.9021
  20   1.0000      -0.415747       -11.3131
  21   1.0000      -0.389488       -10.5985
  22   1.0000      -0.360331        -9.8051
  23   1.0000      -0.336385        -9.1535
  24   1.0000      -0.333185        -9.0664
  25   1.0000      -0.327953        -8.9241
  26   1.0000      -0.321494        -8.7483
  27   1.0000      -0.318508        -8.6670
  28   1.0000      -0.292308        -7.9541
  29   1.0000      -0.288568        -7.8523
  30   1.0000      -0.287584        -7.8256
  31   1.0000      -0.231965        -6.3121
  32   1.0000      -0.206125        -5.6090
  33   0.0000      -0.051876        -1.4116
  34   0.0000      -0.050979        -1.3872
  35   0.0000       0.003850         0.1048
  36   0.0000       0.007390         0.2011
  37   0.0000       0.018174         0.4945

MULLIKEN ATOMIC CHARGES AND SPIN POPULATIONS
--------------------------------------------
   0 C :    1.443506    0.100272
   1 C :   -0.945547    0.464879
   2 C :   -0.481580   -0.207350
   3 C :   -0.945539    0.464875
   4 C :    1.443505    0.100273
   5 C :   -1.131354   -0.041298
   6 H :   -0.219246    0.004558
   7 C :    0.453621   -0.014497
   8 N :   -0.903136    0.099656
   9 H :    0.121398   -0.011828
  10 H :    0.492492   -0.032870
  11 H :    0.121414   -0.011830
  12 C :    0.453601   -0.014494
  13 N :   -0.903136    0.099654
Sum of atomic charges         :   -1.0000000

LOEWDIN ATOMIC CHARGES AND SPIN POPULATIONS
-------------------------------------------
   0 C :   -0.260866    0.100495
   1 C :    0.164159    0.199190
   2 C :    0.134413    0.051861
   3 C :    0.164158    0.199190
   4 C :   -0.260867    0.100495
   5 C :    0.148429    0.017389
   6 H :   -0.172164    0.000076
   7 C :   -0.328199    0.046798
   8 N :    0.169759    0.076183
   9 H :   -0.205385    0.046882
  10 H :   -0.189615   -0.008419
  11 H :   -0.205384    0.046881
  12 C :   -0.328198    0.046798
  13 N :    0.169759    0.076182

  Mayer bond orders larger than 0.100000
B(  0-C ,  1-C ) :  -0.1667 B(  0-C ,  2-C ) :   0.2323 B(  0-C ,  4-C ) :   0.4993
B(  0-C ,  5-C ) :   0.2733 B(  0-C ,  6-H ) :  -0.2652 B(  0-C , 11-H ) :  -0.1903
B(  0-C , 12-C ) :   0.7439 B(  0-C , 13-N ) :   0.1507 B(  1-C ,  2-C ) :   1.0933
B(  1-C ,  3-C ) :  -0.1299 B(  1-C ,  5-C ) :  -0.2292 B(  1-C , 11-H ) :   1.2443
B(  1-C , 12-C ) :   0.3819 B(  2-C ,  3-C ) :   1.0934 B(  2-C ,  4-C ) :   0.2323
B(  2-C ,  6-H ) :  -0.1085 B(  2-C ,  9-H ) :  -0.1354 B(  2-C , 10-H ) :   0.6422
B(  2-C , 11-H ) :  -0.1354 B(  3-C ,  4-C ) :  -0.1667 B(  3-C ,  5-C ) :  -0.2292
B(  3-C ,  7-C ) :   0.3819 B(  3-C ,  9-H ) :   1.2443 B(  4-C ,  5-C ) :   0.2732
B(  4-C ,  6-H ) :  -0.2652 B(  4-C ,  7-C ) :   0.7439 B(  4-C ,  8-N ) :   0.1508
B(  4-C ,  9-H ) :  -0.1903 B(  5-C ,  6-H ) :   1.7171 B(  5-C ,  7-C ) :   0.1434
B(  5-C ,  8-N ) :   0.1113 B(  5-C ,  9-H ) :   0.1340 B(  5-C , 11-H ) :   0.1340
B(  5-C , 12-C ) :   0.1434 B(  5-C , 13-N ) :   0.1113 B(  6-H ,  9-H ) :   0.1046
B(  6-H , 11-H ) :   0.1046 B(  7-C ,  8-N ) :   1.5765 B(  7-C , 12-C ) :   0.2632
B( 12-C , 13-N ) :   1.5765

Dispersion correction           -0.004811233
FINAL SINGLE POINT ENERGY      -416.758479171935

DIPOLE MOMENT
-------------

Method             : SCF
Type of density    : Electron Density
Multiplicity       :   2
Irrep              :   0
Energy             :  -416.7536679389279470 Eh
Relativity type    :
Basis              : AO
                                X                 Y                 Z
Electronic contribution:     -0.000090594      -3.058743174       0.000001331
Nuclear contribution   :      0.000112492       4.957639268      -0.000022391
                        -----------------------------------------
Total Dipole Moment    :      0.000021899       1.898896094      -0.000021060
                        -----------------------------------------
Magnitude (a.u.)       :      1.898896095
Magnitude (Debye)      :      4.826610296

VIBRATIONAL FREQUENCIES
-----------------------

Scaling factor for frequencies =  1.000000000  (already applied!)

     0:       0.00 cm**-1
     1:       0.00 cm**-1
     2:       0.00 cm**-1
     3:       0.00 cm**-1
     4:       0.00 cm**-1
     5:       0.00 cm**-1
     6:     111.69 cm**-1
     7:     115.07 cm**-1
     8:     130.39 cm**-1
     9:     190.93 cm**-1
    10:     324.23 cm**-1
    11:     397.06 cm**-1
    12:     427.50 cm**-1
    13:     469.11 cm**-1
    14:     489.70 cm**-1
    15:     562.42 cm**-1
    16:     563.40 cm**-1
    17:     616.42 cm**-1
    18:     627.17 cm**-1
    19:     660.82 cm**-1
    20:     671.79 cm**-1
    21:     694.34 cm**-1
    22:     881.33 cm**-1
    23:     904.34 cm**-1
    24:     949.34 cm**-1
    25:     982.49 cm**-1
    26:    1068.87 cm**-1
    27:    1094.54 cm**-1
    28:    1143.27 cm**-1
    29:    1267.64 cm**-1
    30:    1287.41 cm**-1
    31:    1357.11 cm**-1
    32:    1402.59 cm**-1
    33:    1408.04 cm**-1
    34:    1478.42 cm**-1
    35:    1514.33 cm**-1
    36:    2122.27 cm**-1
    37:    2215.42 cm**-1
    38:    3146.85 cm**-1
    39:    3169.95 cm**-1
    40:    3189.83 cm**-1
    41:    3196.70 cm**-1

IR SPECTRUM
-----------

 Mode   freq       eps      Int      T**2         TX        TY        TZ
       cm**-1   L/(mol*cm) km/mol    a.u.
----------------------------------------------------------------------------
  6:    111.69   0.003537   17.87  0.009882  (-0.000002 -0.099410  0.000001)
  7:    115.07   0.001623    8.20  0.004402  (-0.000160 -0.000002 -0.066346)
  8:    130.39   0.000000    0.00  0.000000  (-0.000001 -0.000146 -0.000004)
  9:    190.93   0.000663    3.35  0.001084  (-0.032921  0.000001 -0.000190)
 10:    324.23   0.000000    0.00  0.000000  ( 0.000000 -0.000035 -0.000000)
 11:    397.06   0.005116   25.85  0.004021  ( 0.000442 -0.000001 -0.063406)
 12:    427.50   0.013752   69.50  0.010039  (-0.100193  0.000002 -0.000003)
 13:    469.11   0.000110    0.56  0.000073  ( 0.000000  0.008561 -0.000001)
 14:    489.70   0.008374   42.32  0.005336  ( 0.000256  0.000000  0.073049)
 15:    562.42   0.000139    0.70  0.000077  (-0.000001  0.008797  0.000000)
 16:    563.40   0.000000    0.00  0.000000  ( 0.000001  0.000311  0.000001)
 17:    616.42   0.000034    0.17  0.000017  (-0.003280 -0.000000  0.002530)
 18:    627.17   0.028437  143.71  0.014150  (-0.000315  0.000001  0.118952)
 19:    660.82   0.002003   10.12  0.000946  ( 0.000020  0.000000  0.030759)
 20:    671.79   0.000000    0.00  0.000000  (-0.000001 -0.000136  0.000003)
 21:    694.34   0.000002    0.01  0.000001  (-0.000002  0.000899 -0.000001)
 22:    881.33   0.028049  141.75  0.009932  ( 0.099658 -0.000002 -0.000261)
 23:    904.34   0.003959   20.00  0.001366  (-0.000007 -0.000001 -0.036959)
 24:    949.34   0.000203    1.02  0.000067  (-0.000484  0.000000 -0.008146)
 25:    982.49   0.000002    0.01  0.000001  (-0.000002 -0.000727  0.000001)
 26:   1068.87   0.270905  1369.04  0.079092  ( 0.281234 -0.000006  0.000115)
 27:   1094.54   0.001977    9.99  0.000564  ( 0.000001 -0.023744  0.000000)
 28:   1143.27   0.013625   68.86  0.003719  (-0.060984  0.000001 -0.000094)
 29:   1267.64   0.000042    0.21  0.000010  ( 0.000001  0.003196  0.000001)
 30:   1287.41   0.042457  214.56  0.010291  ( 0.101447 -0.000003 -0.000108)
 31:   1357.11   0.000122    0.62  0.000028  ( 0.005302 -0.000001 -0.000067)
 32:   1402.59   0.000484    2.45  0.000108  (-0.000022  0.010379  0.000001)
 33:   1408.04   0.191743  968.99  0.042496  ( 0.206145 -0.000003 -0.000075)
 34:   1478.42   0.209961  1061.06  0.044318  ( 0.210519 -0.000004  0.000009)
 35:   1514.33   0.000252    1.27  0.000052  (-0.000000  0.007207  0.000001)
 36:   2122.27   0.876835  4431.16  0.128932  ( 0.359071 -0.000008 -0.000061)
 37:   2215.42   0.070634  356.95  0.009949  (-0.000004 -0.099747 -0.000001)
 38:   3146.85   0.004659   23.55  0.000462  (-0.000000 -0.021495  0.000000)
 39:   3169.95   0.001226    6.20  0.000121  (-0.000001 -0.010985 -0.000000)
 40:   3189.83   0.007826   39.55  0.000766  (-0.027669  0.000002  0.000060)
 41:   3196.70   0.005066   25.60  0.000495  (-0.000002 -0.022238  0.000000)

--------------------------
THERMOCHEMISTRY AT 298.15K
--------------------------

Temperature         ...   298.15 K
Pressure            ...     1.00 atm
Total Mass          ...   128.13 AMU
Quasi RRHO          ...     True
Cut-Off Frequency   ...     1.00 cm^-1

Throughout the following assumptions are being made:
  (1) The electronic state is orbitally nondegenerate
      but the spin degeneracy is treated
  (2) There are no thermally accessible electronically excited states
  (3) Hindered rotations indicated by low frequency modes are not
      treated as such but are treated as vibrations and this may
      cause some error
  (4) All equations used are the standard statistical mechanics
      equations for an ideal gas
  (5) All vibrations are strictly harmonic

freq.     111.69  E(vib)   ...       0.45
freq.     115.07  E(vib)   ...       0.44
freq.     130.39  E(vib)   ...       0.43
freq.     190.93  E(vib)   ...       0.36
freq.     324.23  E(vib)   ...       0.25
freq.     397.06  E(vib)   ...       0.20
freq.     427.50  E(vib)   ...       0.18
freq.     469.11  E(vib)   ...       0.16
freq.     489.70  E(vib)   ...       0.15
freq.     562.42  E(vib)   ...       0.11
freq.     563.40  E(vib)   ...       0.11
freq.     616.42  E(vib)   ...       0.09
freq.     627.17  E(vib)   ...       0.09
freq.     660.82  E(vib)   ...       0.08
freq.     671.79  E(vib)   ...       0.08
freq.     694.34  E(vib)   ...       0.07
freq.     881.33  E(vib)   ...       0.04
freq.     904.34  E(vib)   ...       0.03
freq.     949.34  E(vib)   ...       0.03
freq.     982.49  E(vib)   ...       0.02
freq.    1068.87  E(vib)   ...       0.02
freq.    1094.54  E(vib)   ...       0.02
freq.    1143.27  E(vib)   ...       0.01
freq.    1267.64  E(vib)   ...       0.01
freq.    1287.41  E(vib)   ...       0.01
freq.    1357.11  E(vib)   ...       0.01
freq.    1402.59  E(vib)   ...       0.00
freq.    1408.04  E(vib)   ...       0.00
freq.    1478.42  E(vib)   ...       0.00
freq.    1514.33  E(vib)   ...       0.00
freq.    2122.27  E(vib)   ...       0.00
freq.    2215.42  E(vib)   ...       0.00
freq.    3146.85  E(vib)   ...       0.00
freq.    3169.95  E(vib)   ...       0.00
freq.    3189.83  E(vib)   ...       0.00
freq.    3196.70  E(vib)   ...       0.00

------------
INNER ENERGY
------------

The inner energy is: U= E(el) + E(ZPE) + E(vib) + E(rot) + E(trans)
    E(el)   - is the total energy from the electronic structure calculation
              = E(kin-el) + E(nuc-el) + E(el-el) + E(nuc-nuc)
    E(ZPE)  - the the zero temperature vibrational energy from the frequency calculation
    E(vib)  - the the finite temperature correction to E(ZPE) due to population
              of excited vibrational states
    E(rot)  - is the rotational thermal energy
    E(trans)- is the translational thermal energy

Summary of contributions to the inner energy U:
Electronic energy                ...   -416.75847917 Eh
Zero point energy                ...      0.09302389 Eh      58.37 kcal/mol
Thermal vibrational correction   ...      0.00549567 Eh       3.45 kcal/mol
Thermal rotational correction    ...      0.00141627 Eh       0.89 kcal/mol
Thermal translational correction ...      0.00141627 Eh       0.89 kcal/mol
-----------------------------------------------------------------------
Total thermal energy                   -416.65712706 Eh

Summary of corrections to the electronic energy:
(perhaps to be used in another calculation)
Total thermal correction                  0.00832821 Eh       5.23 kcal/mol
Non-thermal (ZPE) correction              0.09302389 Eh      58.37 kcal/mol
-----------------------------------------------------------------------
Total correction                          0.10135211 Eh      63.60 kcal/mol

--------
ENTHALPY
--------

The enthalpy is H = U + kB*T
                kB is Boltzmann's constant
Total thermal energy              ...   -416.65712706 Eh
Thermal Enthalpy correction       ...      0.00094421 Eh       0.59 kcal/mol
-----------------------------------------------------------------------
Total Enthalpy                    ...   -416.65618285 Eh

Note: Rotational entropy computed according to Herzberg
Infrared and Raman Spectra, Chapter V,1, Van Nostrand Reinhold, 1945
Point Group:  C2, Symmetry Number:   2
Rotational constants in cm-1:     0.087907     0.030655     0.022729

Vibrational entropy computed according to the QRRHO of S. Grimme
Chem.Eur.J. 2012 18 9955 using a reference frequency of 100.0 cm-1

-------
ENTROPY
-------

The entropy contributions are T*S = T*(S(el)+S(vib)+S(rot)+S(trans))
     S(el)   - electronic entropy
     S(vib)  - vibrational entropy
     S(rot)  - rotational entropy
     S(trans)- translational entropy
The entropies will be listed as multiplied by the temperature to get
units of energy

Electronic entropy                ...      0.00065446 Eh      0.41 kcal/mol
Vibrational entropy               ...      0.00921717 Eh      5.78 kcal/mol
Rotational entropy                ...      0.01343588 Eh      8.43 kcal/mol
Translational entropy             ...      0.01922234 Eh     12.06 kcal/mol
-----------------------------------------------------------------------
Final entropy term                ...      0.04252985 Eh     26.69 kcal/mol

In case the symmetry of your molecule has not been determined correctly
or in case you have a reason to use a different symmetry number we print
out the resulting rotational entropy values for sn=1,12:

 non-linear molecules -----------------------------------
|  sn= 1 | S(rot)=       0.01409034 Eh      8.84 kcal/mol|
|  sn= 2 | S(rot)=       0.01343588 Eh      8.43 kcal/mol|
|  sn= 3 | S(rot)=       0.01305305 Eh      8.19 kcal/mol|
|  sn= 4 | S(rot)=       0.01278143 Eh      8.02 kcal/mol|
|  sn= 5 | S(rot)=       0.01257074 Eh      7.89 kcal/mol|
|  sn= 6 | S(rot)=       0.01239859 Eh      7.78 kcal/mol|
|  sn= 7 | S(rot)=       0.01225305 Eh      7.69 kcal/mol|
|  sn= 8 | S(rot)=       0.01212697 Eh      7.61 kcal/mol|
|  sn= 9 | S(rot)=       0.01201576 Eh      7.54 kcal/mol|
|  sn=10 | S(rot)=       0.01191628 Eh      7.48 kcal/mol|
|  sn=11 | S(rot)=       0.01182629 Eh      7.42 kcal/mol|
|  sn=12 | S(rot)=       0.01174414 Eh      7.37 kcal/mol|
 linear molecules ---------------------------------------
|  Dinfh | S(rot)=       0.00889869 Eh      5.58 kcal/mol|
|  Cinfv | S(rot)=       0.00955314 Eh      5.99 kcal/mol|
 --------------------------------------------------------

-------------------
GIBBS FREE ENERGY
-------------------

The Gibbs free energy is G = H - T*S

Total enthalpy                    ...   -416.65618285 Eh
Total entropy correction          ...     -0.04252985 Eh    -26.69 kcal/mol
-----------------------------------------------------------------------
Final Gibbs free energy         ...   -416.69871271 Eh

                             ****ORCA TERMINATED NORMALLY****
TOTAL RUN TIME: 0 days 0 hours 25 minutes 12 seconds 379 msec
