                         Program Version 6.0.0  -   RELEASE  -
|  1> !PBE0 def2-SV(p) Opt Freq d3 TightSCF SlowConv RIJCOSX defgrid2
|  2>
|  3> %pal
|  4> nprocs 4
|  5> end
|  6>
|  7> %scf
|  8> MaxIter 1500
|  9> end
| 10>
| 11> %maxcore 3000
| 12>
| 13>
| 14>
| 15> * xyz 0 1
| 16> C    -1.3726980   -1.2170953   -0.0001414
| 17> C     0.0079465   -1.2148660   -0.0000988
| 18> C     0.6891272   -0.0000049    0.0001095
| 19> C     0.0079595    1.2148636    0.0001318
| 20> C    -1.3726850    1.2171073    0.0000980
| 21> C    -2.0386443    0.0000096   -0.0000234
| 22> F    -3.3837157    0.0000169   -0.0000498
| 23> H    -1.9337906    2.1373593    0.0001840
| 24> H     0.5683967    2.1366689    0.0002554
| 25> N     2.1245713   -0.0000126    0.0004268
| 26> O     2.6982893   -1.0730408   -0.0001132
| 27> O     2.6983010    1.0730090   -0.0004524
| 28> H     0.5683745   -2.1366770   -0.0001620
| 29> H    -1.9338130   -2.1373415   -0.0002512
| 30> *
| 31>
| 32>                          ****END OF INPUT****
 Total Charge           Charge          ....    0
 Multiplicity           Mult            ....    1
 Number of Electrons    NEL             ....   72
Dispersion correction           -0.012720752
FINAL SINGLE POINT ENERGY      -535.019032824614
Dispersion correction             ... done (  0.1 sec)
Dispersion correction           -0.012688753
FINAL SINGLE POINT ENERGY      -535.020454301130
Dispersion correction             ... done (  0.0 sec)
Dispersion correction           -0.012681669
FINAL SINGLE POINT ENERGY      -535.020443168460
Dispersion correction             ... done (  0.1 sec)
FINAL SINGLE POINT ENERGY      -535.020419784065
Dispersion correction             ... done (  0.1 sec)
Dispersion correction           -0.012683218
FINAL SINGLE POINT ENERGY      -535.020665119652
Dispersion correction             ... done (  0.1 sec)
Dispersion correction           -0.012683074
FINAL SINGLE POINT ENERGY      -535.020668350341
Dispersion correction             ... done (  0.1 sec)
                    ***********************HURRAY********************

CARTESIAN COORDINATES (ANGSTROEM)
---------------------------------
  C     -1.380537   -1.218045   -0.000111
  C      0.008807   -1.217615   -0.000090
  C      0.684075   -0.000008    0.000021
  C      0.008819    1.217609    0.000109
  C     -1.380524    1.218059    0.000091
  C     -2.055801    0.000010   -0.000018
  F     -3.380487    0.000018   -0.000035
  H     -1.952166    2.148938    0.000162
  H      0.582165    2.145809    0.000188
  N      2.150122   -0.000021    0.000042
  O      2.706601   -1.075347   -0.000067
  O      2.706596    1.075324   -0.000024
  H      0.582141   -2.145819   -0.000158
  H     -1.952191   -2.148916   -0.000197

 Multiplicity           Mult            ....    1
 Number of Electrons    NEL             ....   72
 Basis Dimension        Dim             ....  148

ORBITAL ENERGIES
----------------

  NO   OCC          E(Eh)            E(eV)
   0   2.0000     -24.814117      -675.2265
   1   2.0000     -19.244054      -523.6573
   2   2.0000     -19.244019      -523.6564
   3   2.0000     -14.633691      -398.2030
   4   2.0000     -10.356279      -281.8087
   5   2.0000     -10.306881      -280.4645
   6   2.0000     -10.281597      -279.7765
   7   2.0000     -10.281566      -279.7756
   8   2.0000     -10.274321      -279.5785
   9   2.0000     -10.274317      -279.5784
  10   2.0000      -1.275999       -34.7217
  11   2.0000      -1.271593       -34.6018
  12   2.0000      -1.091994       -29.7147
  13   2.0000      -0.929045       -25.2806
  14   2.0000      -0.839135       -22.8340
  15   2.0000      -0.810782       -22.0625
  16   2.0000      -0.727777       -19.8038
  17   2.0000      -0.678141       -18.4532
  18   2.0000      -0.630009       -17.1434
  19   2.0000      -0.598928       -16.2976
  20   2.0000      -0.575497       -15.6601
  21   2.0000      -0.571349       -15.5472
  22   2.0000      -0.554926       -15.1003
  23   2.0000      -0.524469       -14.2715
  24   2.0000      -0.518780       -14.1167
  25   2.0000      -0.495810       -13.4917
  26   2.0000      -0.480891       -13.0857
  27   2.0000      -0.463504       -12.6126
  28   2.0000      -0.448025       -12.1914
  29   2.0000      -0.413174       -11.2430
  30   2.0000      -0.392590       -10.6829
  31   2.0000      -0.333866        -9.0850
  32   2.0000      -0.331815        -9.0292
  33   2.0000      -0.316286        -8.6066
  34   2.0000      -0.309602        -8.4247
  35   2.0000      -0.296802        -8.0764
  36   0.0000      -0.088701        -2.4137
  37   0.0000      -0.043450        -1.1823
  38   0.0000       0.001228         0.0334
  39   0.0000       0.057021         1.5516
  40   0.0000       0.093973         2.5571

MULLIKEN ATOMIC CHARGES
-----------------------
   0 C :   -0.199171
   1 C :   -0.113237
   2 C :    0.175330
   3 C :   -0.113237
   4 C :   -0.199168
   5 C :    0.383095
   6 F :   -0.187047
   7 H :    0.124389
   8 H :    0.134095
   9 N :    0.229677
  10 O :   -0.246587
  11 O :   -0.246620
  12 H :    0.134092
  13 H :    0.124388
Sum of atomic charges:    0.0000000

LOEWDIN ATOMIC CHARGES
----------------------
   0 C :   -0.146950
   1 C :   -0.092918
   2 C :   -0.051514
   3 C :   -0.092920
   4 C :   -0.146950
   5 C :    0.090822
   6 F :   -0.043573
   7 H :    0.150442
   8 H :    0.156160
   9 N :    0.274957
  10 O :   -0.202061
  11 O :   -0.202096
  12 H :    0.156159
  13 H :    0.150442

  Mayer bond orders larger than 0.100000
B(  0-C ,  1-C ) :   1.3368 B(  0-C ,  5-C ) :   1.3516 B(  0-C , 13-H ) :   0.9600
B(  1-C ,  2-C ) :   1.3944 B(  1-C , 12-H ) :   0.9443 B(  2-C ,  3-C ) :   1.3944
B(  2-C ,  9-N ) :   0.8480 B(  3-C ,  4-C ) :   1.3368 B(  3-C ,  8-H ) :   0.9443
B(  4-C ,  5-C ) :   1.3516 B(  4-C ,  7-H ) :   0.9600 B(  5-C ,  6-F ) :   1.0720
B(  9-N , 10-O ) :   1.5521 B(  9-N , 11-O ) :   1.5521 B( 10-O , 11-O ) :   0.2711

Dispersion correction           -0.012683335
FINAL SINGLE POINT ENERGY      -535.020668637867

DIPOLE MOMENT
-------------

Method             : SCF
Type of density    : Electron Density
Multiplicity       :   1
Irrep              :   0
Energy             :  -535.0079853027483523 Eh
Relativity type    :
Basis              : AO
                                X                 Y                 Z
Electronic contribution:     -1.895279479      -0.000065198       0.000012188
Nuclear contribution   :      0.647078379      -0.000000805       0.000058033
                        -----------------------------------------
Total Dipole Moment    :     -1.248201100      -0.000066003       0.000070221
                        -----------------------------------------
Magnitude (a.u.)       :      1.248201104
Magnitude (Debye)      :      3.172675069

VIBRATIONAL FREQUENCIES
-----------------------

Scaling factor for frequencies =  1.000000000  (already applied!)

     0:       0.00 cm**-1
     1:       0.00 cm**-1
     2:       0.00 cm**-1
     3:       0.00 cm**-1
     4:       0.00 cm**-1
     5:       0.00 cm**-1
     6:      59.40 cm**-1
     7:     117.77 cm**-1
     8:     232.24 cm**-1
     9:     316.85 cm**-1
    10:     363.72 cm**-1
    11:     419.58 cm**-1
    12:     432.84 cm**-1
    13:     516.51 cm**-1
    14:     551.35 cm**-1
    15:     641.10 cm**-1
    16:     642.37 cm**-1
    17:     707.13 cm**-1
    18:     782.79 cm**-1
    19:     838.60 cm**-1
    20:     840.97 cm**-1
    21:     885.00 cm**-1
    22:     912.16 cm**-1
    23:     996.17 cm**-1
    24:    1000.96 cm**-1
    25:    1026.14 cm**-1
    26:    1104.40 cm**-1
    27:    1141.80 cm**-1
    28:    1179.38 cm**-1
    29:    1292.54 cm**-1
    30:    1321.80 cm**-1
    31:    1424.47 cm**-1
    32:    1472.89 cm**-1
    33:    1479.57 cm**-1
    34:    1558.88 cm**-1
    35:    1687.34 cm**-1
    36:    1698.70 cm**-1
    37:    1766.80 cm**-1
    38:    3232.70 cm**-1
    39:    3234.31 cm**-1
    40:    3253.98 cm**-1
    41:    3254.66 cm**-1

IR SPECTRUM
-----------

 Mode   freq       eps      Int      T**2         TX        TY        TZ
       cm**-1   L/(mol*cm) km/mol    a.u.
----------------------------------------------------------------------------
  6:     59.40   0.000000    0.00  0.000000  ( 0.000003  0.000007 -0.000010)
  7:    117.77   0.000725    3.66  0.001921  (-0.000000 -0.000017 -0.043828)
  8:    232.24   0.000683    3.45  0.000918  ( 0.000001  0.030295  0.000004)
  9:    316.85   0.000008    0.04  0.000008  (-0.000004 -0.000004 -0.002857)
 10:    363.72   0.000000    0.00  0.000000  (-0.000214  0.000001 -0.000002)
 11:    419.58   0.000496    2.51  0.000369  ( 0.000000  0.019211  0.000002)
 12:    432.84   0.000000    0.00  0.000000  (-0.000002 -0.000021  0.000000)
 13:    516.51   0.001289    6.51  0.000779  (-0.000004  0.000024  0.027904)
 14:    551.35   0.000089    0.45  0.000050  ( 0.000000 -0.007102 -0.000001)
 15:    641.10   0.000047    0.24  0.000023  ( 0.000035  0.004789  0.000001)
 16:    642.37   0.004872   24.62  0.002367  ( 0.048651 -0.000003  0.000003)
 17:    707.13   0.001876    9.48  0.000828  ( 0.000005 -0.000001  0.028773)
 18:    782.79   0.006860   34.67  0.002735  (-0.000011  0.000008 -0.052296)
 19:    838.60   0.000000    0.00  0.000000  (-0.000001 -0.000003  0.000000)
 20:    840.97   0.000007    0.04  0.000003  (-0.001619 -0.000001 -0.000002)
 21:    885.00   0.008858   44.77  0.003124  (-0.000007  0.000015  0.055889)
 22:    912.16   0.011279   57.00  0.003859  ( 0.062118 -0.000002  0.000001)
 23:    996.17   0.000003    0.01  0.000001  (-0.000000  0.000026  0.000926)
 24:   1000.96   0.000000    0.00  0.000000  ( 0.000000  0.000002 -0.000000)
 25:   1026.14   0.000571    2.89  0.000174  ( 0.013183  0.000001  0.000000)
 26:   1104.40   0.002948   14.90  0.000833  (-0.000002  0.028860  0.000002)
 27:   1141.80   0.010403   52.57  0.002843  (-0.053321 -0.000001  0.000000)
 28:   1179.38   0.000229    1.16  0.000061  (-0.007780  0.000001  0.000001)
 29:   1292.54   0.000502    2.54  0.000121  ( 0.000001 -0.011010 -0.000001)
 30:   1321.80   0.022620  114.31  0.005340  ( 0.073078 -0.000001  0.000000)
 31:   1424.47   0.001524    7.70  0.000334  (-0.000004 -0.018273 -0.000001)
 32:   1472.89   0.000060    0.30  0.000013  ( 0.000047 -0.003558 -0.000000)
 33:   1479.57   0.063716  321.99  0.013439  (-0.115925 -0.000011  0.000002)
 34:   1558.88   0.018973   95.88  0.003798  ( 0.061628  0.000002  0.000001)
 35:   1687.34   0.001473    7.44  0.000272  (-0.000007  0.016503 -0.000001)
 36:   1698.70   0.021130  106.78  0.003882  (-0.062304  0.000004 -0.000001)
 37:   1766.80   0.047446  239.78  0.008380  ( 0.000009 -0.091544 -0.000002)
 38:   3232.70   0.000026    0.13  0.000002  (-0.001578  0.000002 -0.000000)
 39:   3234.31   0.000000    0.00  0.000000  ( 0.000008  0.000111 -0.000000)
 40:   3253.98   0.001274    6.44  0.000122  (-0.000190 -0.011051 -0.000001)
 41:   3254.66   0.000810    4.09  0.000078  (-0.008808  0.000237  0.000000)

--------------------------
THERMOCHEMISTRY AT 298.15K
--------------------------

Temperature         ...   298.15 K
Pressure            ...     1.00 atm
Total Mass          ...   141.10 AMU
Quasi RRHO          ...     True
Cut-Off Frequency   ...     1.00 cm^-1

Throughout the following assumptions are being made:
  (1) The electronic state is orbitally nondegenerate
  (2) There are no thermally accessible electronically excited states
  (3) Hindered rotations indicated by low frequency modes are not
      treated as such but are treated as vibrations and this may
      cause some error
  (4) All equations used are the standard statistical mechanics
      equations for an ideal gas
  (5) All vibrations are strictly harmonic

freq.      59.40  E(vib)   ...       0.51
freq.     117.77  E(vib)   ...       0.44
freq.     232.24  E(vib)   ...       0.32
freq.     316.85  E(vib)   ...       0.25
freq.     363.72  E(vib)   ...       0.22
freq.     419.58  E(vib)   ...       0.18
freq.     432.84  E(vib)   ...       0.17
freq.     516.51  E(vib)   ...       0.13
freq.     551.35  E(vib)   ...       0.12
freq.     641.10  E(vib)   ...       0.09
freq.     642.37  E(vib)   ...       0.09
freq.     707.13  E(vib)   ...       0.07
freq.     782.79  E(vib)   ...       0.05
freq.     838.60  E(vib)   ...       0.04
freq.     840.97  E(vib)   ...       0.04
freq.     885.00  E(vib)   ...       0.04
freq.     912.16  E(vib)   ...       0.03
freq.     996.17  E(vib)   ...       0.02
freq.    1000.96  E(vib)   ...       0.02
freq.    1026.14  E(vib)   ...       0.02
freq.    1104.40  E(vib)   ...       0.02
freq.    1141.80  E(vib)   ...       0.01
freq.    1179.38  E(vib)   ...       0.01
freq.    1292.54  E(vib)   ...       0.01
freq.    1321.80  E(vib)   ...       0.01
freq.    1424.47  E(vib)   ...       0.00
freq.    1472.89  E(vib)   ...       0.00
freq.    1479.57  E(vib)   ...       0.00
freq.    1558.88  E(vib)   ...       0.00
freq.    1687.34  E(vib)   ...       0.00
freq.    1698.70  E(vib)   ...       0.00
freq.    1766.80  E(vib)   ...       0.00
freq.    3232.70  E(vib)   ...       0.00
freq.    3234.31  E(vib)   ...       0.00
freq.    3253.98  E(vib)   ...       0.00
freq.    3254.66  E(vib)   ...       0.00

------------
INNER ENERGY
------------

The inner energy is: U= E(el) + E(ZPE) + E(vib) + E(rot) + E(trans)
    E(el)   - is the total energy from the electronic structure calculation
              = E(kin-el) + E(nuc-el) + E(el-el) + E(nuc-nuc)
    E(ZPE)  - the the zero temperature vibrational energy from the frequency calculation
    E(vib)  - the the finite temperature correction to E(ZPE) due to population
              of excited vibrational states
    E(rot)  - is the rotational thermal energy
    E(trans)- is the translational thermal energy

Summary of contributions to the inner energy U:
Electronic energy                ...   -535.02066864 Eh
Zero point energy                ...      0.09656667 Eh      60.60 kcal/mol
Thermal vibrational correction   ...      0.00467964 Eh       2.94 kcal/mol
Thermal rotational correction    ...      0.00141627 Eh       0.89 kcal/mol
Thermal translational correction ...      0.00141627 Eh       0.89 kcal/mol
-----------------------------------------------------------------------
Total thermal energy                   -534.91658978 Eh

Summary of corrections to the electronic energy:
(perhaps to be used in another calculation)
Total thermal correction                  0.00751218 Eh       4.71 kcal/mol
Non-thermal (ZPE) correction              0.09656667 Eh      60.60 kcal/mol
-----------------------------------------------------------------------
Total correction                          0.10407885 Eh      65.31 kcal/mol

--------
ENTHALPY
--------

The enthalpy is H = U + kB*T
                kB is Boltzmann's constant
Total thermal energy              ...   -534.91658978 Eh
Thermal Enthalpy correction       ...      0.00094421 Eh       0.59 kcal/mol
-----------------------------------------------------------------------
Total Enthalpy                    ...   -534.91564557 Eh

Note: Rotational entropy computed according to Herzberg
Infrared and Raman Spectra, Chapter V,1, Van Nostrand Reinhold, 1945
Point Group:  C2, Symmetry Number:   2
Rotational constants in cm-1:     0.132896     0.026895     0.022368

Vibrational entropy computed according to the QRRHO of S. Grimme
Chem.Eur.J. 2012 18 9955 using a reference frequency of 100.0 cm-1

-------
ENTROPY
-------

The entropy contributions are T*S = T*(S(el)+S(vib)+S(rot)+S(trans))
     S(el)   - electronic entropy
     S(vib)  - vibrational entropy
     S(rot)  - rotational entropy
     S(trans)- translational entropy
The entropies will be listed as multiplied by the temperature to get
units of energy

Electronic entropy                ...      0.00000000 Eh      0.00 kcal/mol
Vibrational entropy               ...      0.00768073 Eh      4.82 kcal/mol
Rotational entropy                ...      0.01331011 Eh      8.35 kcal/mol
Translational entropy             ...      0.01935887 Eh     12.15 kcal/mol
-----------------------------------------------------------------------
Final entropy term                ...      0.04034972 Eh     25.32 kcal/mol

In case the symmetry of your molecule has not been determined correctly
or in case you have a reason to use a different symmetry number we print
out the resulting rotational entropy values for sn=1,12:

 non-linear molecules -----------------------------------
|  sn= 1 | S(rot)=       0.01396457 Eh      8.76 kcal/mol|
|  sn= 2 | S(rot)=       0.01331011 Eh      8.35 kcal/mol|
|  sn= 3 | S(rot)=       0.01292728 Eh      8.11 kcal/mol|
|  sn= 4 | S(rot)=       0.01265566 Eh      7.94 kcal/mol|
|  sn= 5 | S(rot)=       0.01244497 Eh      7.81 kcal/mol|
|  sn= 6 | S(rot)=       0.01227282 Eh      7.70 kcal/mol|
|  sn= 7 | S(rot)=       0.01212728 Eh      7.61 kcal/mol|
|  sn= 8 | S(rot)=       0.01200120 Eh      7.53 kcal/mol|
|  sn= 9 | S(rot)=       0.01188999 Eh      7.46 kcal/mol|
|  sn=10 | S(rot)=       0.01179051 Eh      7.40 kcal/mol|
|  sn=11 | S(rot)=       0.01170052 Eh      7.34 kcal/mol|
|  sn=12 | S(rot)=       0.01161837 Eh      7.29 kcal/mol|
 linear molecules ---------------------------------------
|  Dinfh | S(rot)=       0.00891381 Eh      5.59 kcal/mol|
|  Cinfv | S(rot)=       0.00956826 Eh      6.00 kcal/mol|
 --------------------------------------------------------

-------------------
GIBBS FREE ENERGY
-------------------

The Gibbs free energy is G = H - T*S

Total enthalpy                    ...   -534.91564557 Eh
Total entropy correction          ...     -0.04034972 Eh    -25.32 kcal/mol
-----------------------------------------------------------------------
Final Gibbs free energy         ...   -534.95599529 Eh

                             ****ORCA TERMINATED NORMALLY****
TOTAL RUN TIME: 0 days 0 hours 8 minutes 6 seconds 836 msec
