                         Program Version 6.0.0  -   RELEASE  -
|  1> !TPSSh aug-cc-pVTZ d3 TightSCF SlowConv RIJCOSX defgrid2
|  2>
|  3> %pal
|  4> nprocs 4
|  5> end
|  6>
|  7> %scf
|  8> MaxIter 1500
|  9> end
| 10>
| 11> %maxcore 3000
| 12>
| 13> !CPCM
| 14> %cpcm smd true
| 15> SMDsolvent "MeCN"
| 16> surfacetype gepol_ses
| 17> rsolv 2.19
| 18> end
| 19>
| 20> * xyz 1 1
| 21> S          -0.00010944424839      1.35688622383581     -0.00045588940143
| 22> C          -1.36031372365063      0.28664543166242     -0.00546340006884
| 23> C          -2.62476671337193      0.84705677005335     -0.00971453464717
| 24> C          -3.78353785154568      0.02886102280580     -0.01423429397565
| 25> C          -3.60107018284620     -1.39624179093014     -0.01297231605589
| 26> C          -2.35199681392559     -1.94146658195771     -0.00876136479511
| 27> H          -2.20685076914384     -3.02424367637830     -0.00793305758699
| 28> C          -1.17128315978886     -1.13818915246922     -0.00497020504615
| 29> N          -0.00001727096531     -1.76076243632930     -0.00102819010967
| 30> C           1.17121135470124     -1.13812134734186      0.00317013049378
| 31> C           2.35197256200709     -1.94133049036071      0.00663254829317
| 32> C           3.60101296929016     -1.39603417388084      0.01111542619478
| 33> C           3.78339829568492      0.02907907789014      0.01307239629264
| 34> C           2.62457944996628      0.84720769458296      0.00871634184597
| 35> C           1.36015864778127      0.28672353397519      0.00420556171077
| 36> H           2.71641587399496      1.93353835850929      0.00870793171486
| 37> N           5.01788004531514      0.56609746843354      0.01833544940540
| 38> C           5.18814133491822      2.00584377316990      0.01634403450098
| 39> H           4.74542942133653      2.46193420678108     -0.88734870267485
| 40> H           4.72786575445769      2.46596005134639      0.90894953027437
| 41> H           6.25942535209398      2.24475285672826      0.02662709311567
| 42> C           6.19613286716415     -0.28271908536379      0.01876057872020
| 43> H           7.09315770451857      0.34984666853403      0.03069035539786
| 44> H           6.22593666634906     -0.93099154946415      0.91190332484387
| 45> H           6.23822191663831     -0.91632293624570     -0.88458991452958
| 46> H           4.46615171425756     -2.05841324252657      0.01286181646995
| 47> H           2.20688865714732     -3.02411577980646      0.00525686441104
| 48> H          -4.46616949026249     -2.05867393830664     -0.01518022916305
| 49> N          -5.01805188093167      0.56580837981430     -0.01910492853996
| 50> C          -6.19625511800718     -0.28307615883811     -0.01957513903852
| 51> H          -6.23708281763836     -0.91821943273873      0.88272679402223
| 52> H          -6.22732906825129     -0.92976319747341     -0.91384668889601
| 53> H          -7.09331253060909      0.34948868396873     -0.02891629923048
| 54> C          -5.18838315405153      2.00554867169595     -0.01756056694950
| 55> H          -4.74545392382641      2.46196127570139      0.88586029063703
| 56> H          -4.72835954265605      2.46538730377880     -0.91044348638837
| 57> H          -6.25968060226678      2.24440376590571     -0.02761767922995
| 58> H          -2.71666652963520      1.93338075123861     -0.00930728201738
| 59> *
| 60>
| 61>                          ****END OF INPUT****

CARTESIAN COORDINATES (ANGSTROEM)
---------------------------------
  S     -0.000109    1.356886   -0.000456
  C     -1.360314    0.286645   -0.005463
  C     -2.624767    0.847057   -0.009715
  C     -3.783538    0.028861   -0.014234
  C     -3.601070   -1.396242   -0.012972
  C     -2.351997   -1.941467   -0.008761
  H     -2.206851   -3.024244   -0.007933
  C     -1.171283   -1.138189   -0.004970
  N     -0.000017   -1.760762   -0.001028
  C      1.171211   -1.138121    0.003170
  C      2.351973   -1.941330    0.006633
  C      3.601013   -1.396034    0.011115
  C      3.783398    0.029079    0.013072
  C      2.624579    0.847208    0.008716
  C      1.360159    0.286724    0.004206
  H      2.716416    1.933538    0.008708
  N      5.017880    0.566097    0.018335
  C      5.188141    2.005844    0.016344
  H      4.745429    2.461934   -0.887349
  H      4.727866    2.465960    0.908950
  H      6.259425    2.244753    0.026627
  C      6.196133   -0.282719    0.018761
  H      7.093158    0.349847    0.030690
  H      6.225937   -0.930992    0.911903
  H      6.238222   -0.916323   -0.884590
  H      4.466152   -2.058413    0.012862
  H      2.206889   -3.024116    0.005257
  H     -4.466169   -2.058674   -0.015180
  N     -5.018052    0.565808   -0.019105
  C     -6.196255   -0.283076   -0.019575
  H     -6.237083   -0.918219    0.882727
  H     -6.227329   -0.929763   -0.913847
  H     -7.093313    0.349489   -0.028916
  C     -5.188383    2.005549   -0.017561
  H     -4.745454    2.461961    0.885860
  H     -4.728360    2.465387   -0.910443
  H     -6.259681    2.244404   -0.027618
  H     -2.716667    1.933381   -0.009307

 Total Charge           Charge          ....    1
 Multiplicity           Mult            ....    1
 Number of Electrons    NEL             ....  150
 Basis Dimension        Dim             .... 1338

ORBITAL ENERGIES
----------------

  NO   OCC          E(Eh)            E(eV)
   0   2.0000     -88.797929     -2416.3145
   1   2.0000     -14.309447      -389.3798
   2   2.0000     -14.309446      -389.3798
   3   2.0000     -14.281656      -388.6236
   4   2.0000     -10.190597      -277.3003
   5   2.0000     -10.190571      -277.2995
   6   2.0000     -10.186729      -277.1950
   7   2.0000     -10.186691      -277.1939
   8   2.0000     -10.177306      -276.9386
   9   2.0000     -10.177301      -276.9384
  10   2.0000     -10.150068      -276.1974
  11   2.0000     -10.150060      -276.1972
  12   2.0000     -10.149998      -276.1955
  13   2.0000     -10.149967      -276.1947
  14   2.0000     -10.140686      -275.9421
  15   2.0000     -10.140669      -275.9416
  16   2.0000     -10.138962      -275.8952
  17   2.0000     -10.138883      -275.8930
  18   2.0000     -10.137208      -275.8474
  19   2.0000     -10.137195      -275.8471
  20   2.0000      -7.923795      -215.6174
  21   2.0000      -5.874503      -159.8534
  22   2.0000      -5.870521      -159.7450
  23   2.0000      -5.867652      -159.6669
  24   2.0000      -0.963702       -26.2237
  25   2.0000      -0.962316       -26.1859
  26   2.0000      -0.953877       -25.9563
  27   2.0000      -0.857232       -23.3265
  28   2.0000      -0.853539       -23.2260
  29   2.0000      -0.809713       -22.0334
  30   2.0000      -0.766663       -20.8619
  31   2.0000      -0.757556       -20.6142
  32   2.0000      -0.738187       -20.0871
  33   2.0000      -0.716272       -19.4908
  34   2.0000      -0.715284       -19.4639
  35   2.0000      -0.689560       -18.7639
  36   2.0000      -0.676257       -18.4019
  37   2.0000      -0.634822       -17.2744
  38   2.0000      -0.610817       -16.6212
  39   2.0000      -0.608982       -16.5713
  40   2.0000      -0.588295       -16.0083
  41   2.0000      -0.548784       -14.9332
  42   2.0000      -0.544967       -14.8293
  43   2.0000      -0.512903       -13.9568
  44   2.0000      -0.506554       -13.7840
  45   2.0000      -0.503932       -13.7127
  46   2.0000      -0.480113       -13.0646
  47   2.0000      -0.464284       -12.6338
  48   2.0000      -0.463424       -12.6104
  49   2.0000      -0.453506       -12.3405
  50   2.0000      -0.440154       -11.9772
  51   2.0000      -0.439197       -11.9512
  52   2.0000      -0.433003       -11.7826
  53   2.0000      -0.432356       -11.7650
  54   2.0000      -0.419315       -11.4101
  55   2.0000      -0.417679       -11.3656
  56   2.0000      -0.395248       -10.7552
  57   2.0000      -0.395229       -10.7547
  58   2.0000      -0.395082       -10.7507
  59   2.0000      -0.394097       -10.7239
  60   2.0000      -0.383656       -10.4398
  61   2.0000      -0.382221       -10.4008
  62   2.0000      -0.381891       -10.3918
  63   2.0000      -0.368128       -10.0173
  64   2.0000      -0.361725        -9.8430
  65   2.0000      -0.352568        -9.5939
  66   2.0000      -0.347528        -9.4567
  67   2.0000      -0.338945        -9.2232
  68   2.0000      -0.338718        -9.2170
  69   2.0000      -0.303470        -8.2578
  70   2.0000      -0.280887        -7.6433
  71   2.0000      -0.269304        -7.3281
  72   2.0000      -0.259826        -7.0702
  73   2.0000      -0.224246        -6.1021
  74   2.0000      -0.203941        -5.5495
  75   0.0000      -0.132006        -3.5921
  76   0.0000      -0.055968        -1.5230
  77   0.0000      -0.043902        -1.1946
  78   0.0000      -0.032334        -0.8798
  79   0.0000      -0.010741        -0.2923

MULLIKEN ATOMIC CHARGES
-----------------------
   0 S :   -0.104831
   1 C :    0.515280
   2 C :   -0.552124
   3 C :    1.194723
   4 C :    0.107491
   5 C :   -0.725460
   6 H :    0.312917
   7 C :    0.627687
   8 N :   -1.057811
   9 C :    0.625386
  10 C :   -0.714776
  11 C :    0.123126
  12 C :    1.135295
  13 C :   -0.560391
  14 C :    0.542711
  15 H :   -0.148544
  16 N :   -0.311627
  17 C :   -0.428259
  18 H :    0.203386
  19 H :    0.204965
  20 H :   -0.003061
  21 C :   -0.403325
  22 H :    0.014929
  23 H :    0.174787
  24 H :    0.175635
  25 H :    0.141217
  26 H :    0.315760
  27 H :    0.115690
  28 N :   -0.316354
  29 C :   -0.391926
  30 H :    0.175075
  31 H :    0.174596
  32 H :    0.014821
  33 C :   -0.430477
  34 H :    0.203952
  35 H :    0.204821
  36 H :   -0.003032
  37 H :   -0.152250
Sum of atomic charges:    1.0000000

LOEWDIN ATOMIC CHARGES
----------------------
   0 S :    1.407633
   1 C :   -0.454817
   2 C :    0.166288
   3 C :   -0.191418
   4 C :    0.257758
   5 C :    0.229705
   6 H :   -0.157044
   7 C :   -0.345103
   8 N :    0.400729
   9 C :   -0.345228
  10 C :    0.229681
  11 C :    0.257770
  12 C :   -0.191441
  13 C :    0.166043
  14 C :   -0.455134
  15 H :   -0.200517
  16 N :    0.269459
  17 C :    0.520630
  18 H :   -0.131894
  19 H :   -0.132816
  20 H :   -0.154590
  21 C :    0.522051
  22 H :   -0.155594
  23 H :   -0.133838
  24 H :   -0.132611
  25 H :   -0.179588
  26 H :   -0.157025
  27 H :   -0.179600
  28 N :    0.269476
  29 C :    0.522044
  30 H :   -0.132725
  31 H :   -0.133694
  32 H :   -0.155615
  33 C :    0.520656
  34 H :   -0.131926
  35 H :   -0.132799
  36 H :   -0.154565
  37 H :   -0.200343

  Mayer bond orders larger than 0.100000
B(  0-S ,  1-C ) :   0.1728 B(  0-S ,  2-C ) :   0.2215 B(  0-S ,  7-C ) :   0.1622
B(  0-S ,  8-N ) :  -0.1686 B(  0-S ,  9-C ) :   0.1594 B(  0-S , 13-C ) :   0.2223
B(  0-S , 14-C ) :   0.1653 B(  1-C ,  2-C ) :   0.7787 B(  1-C ,  4-C ) :  -0.2667
B(  1-C ,  7-C ) :   0.7563 B(  1-C ,  8-N ) :  -0.1435 B(  1-C , 13-C ) :   0.1407
B(  1-C , 14-C ) :  -0.5287 B(  1-C , 28-N ) :   0.2952 B(  1-C , 33-C ) :   0.1203
B(  1-C , 37-H ) :   0.1807 B(  2-C ,  3-C ) :   0.3040 B(  2-C ,  5-C ) :  -0.2100
B(  2-C ,  7-C ) :   0.4604 B(  2-C ,  9-C ) :  -0.1876 B(  2-C , 14-C ) :   0.1524
B(  2-C , 27-H ) :   0.1395 B(  2-C , 28-N ) :  -0.4364 B(  2-C , 29-C ) :   0.1407
B(  2-C , 33-C ) :  -0.1986 B(  2-C , 37-H ) :   1.1140 B(  3-C ,  4-C ) :   0.6123
B(  3-C ,  5-C ) :  -0.1778 B(  3-C ,  6-H ) :   0.1034 B(  3-C ,  9-C ) :  -0.1289
B(  3-C , 27-H ) :  -0.1144 B(  3-C , 29-C ) :  -0.1720 B(  3-C , 33-C ) :  -0.1808
B(  3-C , 37-H ) :  -0.1774 B(  4-C ,  5-C ) :   1.4401 B(  4-C ,  6-H ) :   0.1269
B(  4-C ,  7-C ) :   0.4027 B(  4-C ,  8-N ) :   0.1010 B(  4-C , 27-H ) :   0.8921
B(  4-C , 28-N ) :  -0.5389 B(  4-C , 29-C ) :  -0.1640 B(  5-C ,  6-H ) :   0.5345
B(  5-C ,  8-N ) :   0.4333 B(  5-C ,  9-C ) :   0.1816 B(  6-H ,  7-C ) :   0.2228
B(  6-H ,  8-N ) :   0.1919 B(  6-H ,  9-C ) :  -0.1687 B(  7-C ,  9-C ) :   0.8295
B(  7-C , 10-C ) :   0.2397 B(  7-C , 12-C ) :  -0.1843 B(  7-C , 13-C ) :  -0.1711
B(  7-C , 26-H ) :  -0.1456 B(  7-C , 28-N ) :  -0.1762 B(  8-N , 10-C ) :   0.4432
B(  8-N , 11-C ) :   0.1055 B(  8-N , 14-C ) :  -0.1542 B(  8-N , 26-H ) :   0.1994
B(  9-C , 10-C ) :   0.1114 B(  9-C , 11-C ) :   0.3999 B(  9-C , 13-C ) :   0.4508
B(  9-C , 14-C ) :   0.7600 B(  9-C , 16-N ) :  -0.1765 B(  9-C , 26-H ) :   0.2219
B( 10-C , 11-C ) :   1.4272 B( 10-C , 12-C ) :  -0.1585 B( 10-C , 13-C ) :  -0.2361
B( 10-C , 26-H ) :   0.5343 B( 11-C , 12-C ) :   0.6706 B( 11-C , 14-C ) :  -0.2759
B( 11-C , 16-N ) :  -0.5588 B( 11-C , 21-C ) :  -0.1783 B( 11-C , 25-H ) :   0.8816
B( 11-C , 26-H ) :   0.1294 B( 12-C , 13-C ) :   0.3307 B( 12-C , 15-H ) :  -0.1750
B( 12-C , 17-C ) :  -0.1491 B( 12-C , 21-C ) :  -0.1696 B( 13-C , 14-C ) :   0.7884
B( 13-C , 15-H ) :   1.1140 B( 13-C , 16-N ) :  -0.4326 B( 13-C , 17-C ) :  -0.2243
B( 13-C , 21-C ) :   0.1681 B( 13-C , 25-H ) :   0.1321 B( 14-C , 15-H ) :   0.1651
B( 14-C , 16-N ) :   0.2924 B( 14-C , 17-C ) :   0.1133 B( 16-N , 17-C ) :   1.3255
B( 16-N , 21-C ) :   1.3212 B( 17-C , 18-H ) :   0.9028 B( 17-C , 19-H ) :   0.9012
B( 17-C , 20-H ) :   1.0650 B( 21-C , 22-H ) :   1.0253 B( 21-C , 23-H ) :   0.9368
B( 21-C , 24-H ) :   0.9379 B( 28-N , 29-C ) :   1.3148 B( 28-N , 33-C ) :   1.3309
B( 29-C , 30-H ) :   0.9369 B( 29-C , 31-H ) :   0.9349 B( 29-C , 32-H ) :   1.0247
B( 33-C , 34-H ) :   0.9025 B( 33-C , 35-H ) :   0.9012 B( 33-C , 36-H ) :   1.0630

Dispersion correction           -0.059473012
FINAL SINGLE POINT ENERGY     -1183.268603011436

DIPOLE MOMENT
-------------

Method             : SCF
Type of density    : Electron Density
Multiplicity       :   1
Irrep              :   0
Energy             : -1183.2091299993626308 Eh
Relativity type    :
Basis              : AO
                                X                 Y                 Z
Electronic contribution:     -0.003497113      -3.284477568       0.000103276
Nuclear contribution   :     -0.000160838       4.600849614       0.000182721
                        -----------------------------------------
Total Dipole Moment    :     -0.003657952       1.316372046       0.000285997
                        -----------------------------------------
Magnitude (a.u.)       :      1.316377159
Magnitude (Debye)      :      3.345964831

Rotational constants in cm-1:             0.035338             0.004431             0.003949
Rotational constants in MHz :          1059.419573           132.841416           118.400139

                             ****ORCA TERMINATED NORMALLY****
TOTAL RUN TIME: 0 days 0 hours 25 minutes 22 seconds 54 msec
