                         Program Version 6.0.0  -   RELEASE  -
|  1> !r2SCANh opt aug-cc-pVTZ d3 TightSCF SlowConv RIJCOSX defgrid2
|  2>
|  3> %pal
|  4> nprocs 8
|  5> end
|  6>
|  7> %scf
|  8> MaxIter 1500
|  9> end
| 10>
| 11> %maxcore 3500
| 12>
| 13> !CPCM
| 14> %cpcm smd true
| 15> SMDsolvent "MeCN"
| 16> surfacetype gepol_ses
| 17> rsolv 2.19
| 18> end
| 19>
| 20> * xyz -1 2
| 21>   C          -1.16908364743389     -1.25106043112589     -0.00046711885945
| 22>   C          -2.51558895662628     -0.94805778331016     -0.00048970260602
| 23>   C          -2.96951415995677      0.38786935411419     -0.00003437372110
| 24>   C          -1.99949719417351      1.41257476413842      0.00046952009611
| 25>   C          -0.64650719425624      1.13368035065037      0.00050575201273
| 26>   C          -0.16707249946699     -0.21739071251225      0.00002200149285
| 27>   C           1.18771930240505     -0.62830725495849      0.00000084051024
| 28>   O           1.69166054938407     -1.73447405522234     -0.00027921149921
| 29>   Cl          2.41415222066200      0.84117378911090      0.00088007792741
| 30>   H           0.08783721642061      1.94210741862158      0.00088650713536
| 31>   H          -2.32239478311716      2.46171169296406      0.00083360203305
| 32>   H          -4.03893270236722      0.62157662484535     -0.00006413910783
| 33>   H          -3.24555265578784     -1.76825494852385     -0.00088549117391
| 34>   H          -0.82790279568582     -2.29013880879190     -0.00083276424023
| 35> *
| 36>
| 37>                          ****END OF INPUT****
 Total Charge           Charge          ....   -1
 Multiplicity           Mult            ....    2
 Number of Electrons    NEL             ....   73
Dispersion correction           -0.004951820
FINAL SINGLE POINT ENERGY      -805.211102777161
Dispersion correction             ... done (  0.0 sec)
Dispersion correction           -0.004960994
FINAL SINGLE POINT ENERGY      -805.212062002495
Dispersion correction             ... done (  0.1 sec)
Dispersion correction           -0.004961975
FINAL SINGLE POINT ENERGY      -805.212119604877
Dispersion correction             ... done (  0.1 sec)
FINAL SINGLE POINT ENERGY      -805.212137236766
FINAL SINGLE POINT ENERGY      -805.212141602658
Dispersion correction             ... done (  0.1 sec)
Dispersion correction           -0.004960302
FINAL SINGLE POINT ENERGY      -805.212145029318
Dispersion correction             ... done (  0.0 sec)
Dispersion correction           -0.004960140
FINAL SINGLE POINT ENERGY      -805.212147921339
Dispersion correction             ... done (  0.1 sec)
                    ***********************HURRAY********************

CARTESIAN COORDINATES (ANGSTROEM)
---------------------------------
  C     -1.170135   -1.249742   -0.000527
  C     -2.511798   -0.944730   -0.000561
  C     -2.956130    0.384916   -0.000187
  C     -1.995835    1.407304    0.000319
  C     -0.647128    1.129550    0.000395
  C     -0.174997   -0.216346   -0.000041
  C      1.168244   -0.627571    0.000220
  O      1.689373   -1.730641    0.000133
  Cl     2.418752    0.845778    0.000351
  H      0.066954    1.939185    0.001099
  H     -2.316705    2.442201    0.001178
  H     -4.012237    0.616126   -0.000012
  H     -3.234640   -1.752095   -0.000945
  H     -0.844395   -2.280926   -0.000875

 Multiplicity           Mult            ....    2
 Number of Electrons    NEL             ....   73
 Basis Dimension        Dim             ....  533

ORBITAL ENERGIES
----------------
                 SPIN UP ORBITALS
  NO   OCC          E(Eh)            E(eV)
   0   1.0000    -101.534088     -2762.8830
   1   1.0000     -19.080999      -519.2204
   2   1.0000     -10.230452      -278.3847
   3   1.0000     -10.149551      -276.1833
   4   1.0000     -10.141180      -275.9555
   5   1.0000     -10.140471      -275.9362
   6   1.0000     -10.140449      -275.9356
   7   1.0000     -10.139739      -275.9163
   8   1.0000     -10.134985      -275.7870
   9   1.0000      -9.445180      -257.0164
  10   1.0000      -7.162407      -194.8990
  11   1.0000      -7.156897      -194.7491
  12   1.0000      -7.156324      -194.7335
  13   1.0000      -1.021642       -27.8003
  14   1.0000      -0.841129       -22.8883
  15   1.0000      -0.781411       -21.2633
  16   1.0000      -0.738599       -20.0983
  17   1.0000      -0.730451       -19.8766
  18   1.0000      -0.625962       -17.0333
  19   1.0000      -0.578907       -15.7529
  20   1.0000      -0.529427       -14.4064
  21   1.0000      -0.479064       -13.0360
  22   1.0000      -0.438378       -11.9289
  23   1.0000      -0.429276       -11.6812
  24   1.0000      -0.404031       -10.9942
  25   1.0000      -0.399331       -10.8663
  26   1.0000      -0.393417       -10.7054
  27   1.0000      -0.382200       -10.4002
  28   1.0000      -0.345019        -9.3884
  29   1.0000      -0.331802        -9.0288
  30   1.0000      -0.305648        -8.3171
  31   1.0000      -0.280128        -7.6227
  32   1.0000      -0.277512        -7.5515
  33   1.0000      -0.247490        -6.7345
  34   1.0000      -0.246264        -6.7012
  35   1.0000      -0.242902        -6.6097
  36   1.0000      -0.107862        -2.9351
  37   0.0000      -0.009093        -0.2474
  38   0.0000       0.005277         0.1436
  39   0.0000       0.020940         0.5698
  40   0.0000       0.027238         0.7412
  41   0.0000       0.030124         0.8197

                 SPIN DOWN ORBITALS
  NO   OCC          E(Eh)            E(eV)
   0   1.0000    -101.534072     -2762.8826
   1   1.0000     -19.074596      -519.0461
   2   1.0000     -10.224590      -278.2252
   3   1.0000     -10.149583      -276.1842
   4   1.0000     -10.143196      -276.0104
   5   1.0000     -10.142372      -275.9880
   6   1.0000     -10.136764      -275.8354
   7   1.0000     -10.136215      -275.8204
   8   1.0000     -10.129514      -275.6381
   9   1.0000      -9.445171      -257.0162
  10   1.0000      -7.162636      -194.9052
  11   1.0000      -7.156599      -194.7410
  12   1.0000      -7.156333      -194.7337
  13   1.0000      -1.011005       -27.5108
  14   1.0000      -0.836551       -22.7637
  15   1.0000      -0.778362       -21.1803
  16   1.0000      -0.733062       -19.9476
  17   1.0000      -0.726851       -19.7786
  18   1.0000      -0.611709       -16.6454
  19   1.0000      -0.577702       -15.7201
  20   1.0000      -0.525293       -14.2939
  21   1.0000      -0.473523       -12.8852
  22   1.0000      -0.435973       -11.8634
  23   1.0000      -0.424448       -11.5498
  24   1.0000      -0.402545       -10.9538
  25   1.0000      -0.392633       -10.6841
  26   1.0000      -0.379133       -10.3167
  27   1.0000      -0.371851       -10.1186
  28   1.0000      -0.329445        -8.9646
  29   1.0000      -0.328563        -8.9406
  30   1.0000      -0.304776        -8.2934
  31   1.0000      -0.276828        -7.5329
  32   1.0000      -0.273500        -7.4423
  33   1.0000      -0.239399        -6.5144
  34   1.0000      -0.236432        -6.4336
  35   1.0000      -0.225677        -6.1410
  36   0.0000      -0.042223        -1.1489
  37   0.0000      -0.003697        -0.1006
  38   0.0000       0.008743         0.2379
  39   0.0000       0.024996         0.6802
  40   0.0000       0.028657         0.7798

MULLIKEN ATOMIC CHARGES AND SPIN POPULATIONS
--------------------------------------------
   0 C :   -0.943050    0.297817
   1 C :   -0.413771   -0.200321
   2 C :   -0.409225    0.384788
   3 C :   -0.646717   -0.185834
   4 C :   -0.999246    0.301638
   5 C :    1.743245   -0.018688
   6 C :    0.383463    0.277410
   7 O :   -0.849546    0.208689
   8 Cl:   -0.473948    0.006733
   9 H :    0.183361   -0.017017
  10 H :    0.450412   -0.014404
  11 H :    0.500415   -0.014254
  12 H :    0.392774   -0.006627
  13 H :    0.081832   -0.019930
Sum of atomic charges         :   -1.0000000

LOEWDIN ATOMIC CHARGES AND SPIN POPULATIONS
-------------------------------------------
   0 C :    0.141729    0.105150
   1 C :    0.142980    0.019134
   2 C :    0.154072    0.139207
   3 C :    0.140296    0.020029
   4 C :    0.104560    0.102053
   5 C :   -0.334529    0.114628
   6 C :   -1.124569    0.212982
   7 O :    0.287124    0.191958
   8 Cl:    0.573254    0.026650
   9 H :   -0.278814    0.023190
  10 H :   -0.194586   -0.009068
  11 H :   -0.207230    0.038877
  12 H :   -0.193551   -0.009628
  13 H :   -0.210737    0.024839

  Mayer bond orders larger than 0.100000
B(  0-C ,  1-C ) :   1.2079 B(  0-C ,  4-C ) :  -0.2058 B(  0-C ,  6-C ) :   0.2356
B(  0-C , 11-H ) :   0.1044 B(  0-C , 12-H ) :  -0.1379 B(  0-C , 13-H ) :   1.0707
B(  1-C ,  2-C ) :   0.9452 B(  1-C ,  4-C ) :  -0.1034 B(  1-C ,  5-C ) :   0.1152
B(  1-C , 12-H ) :   0.7703 B(  2-C ,  3-C ) :   0.9869 B(  2-C ,  5-C ) :  -0.1695
B(  2-C ,  6-C ) :   0.1373 B(  2-C , 11-H ) :   0.6210 B(  3-C ,  4-C ) :   1.2240
B(  3-C , 10-H ) :   0.6811 B(  4-C ,  5-C ) :  -0.1333 B(  4-C ,  6-C ) :   0.3852
B(  4-C ,  9-H ) :   1.3383 B(  4-C , 10-H ) :  -0.1465 B(  4-C , 13-H ) :   0.1195
B(  5-C ,  6-C ) :   0.6729 B(  5-C ,  7-O ) :   0.2158 B(  5-C , 13-H ) :  -0.1254
B(  6-C ,  7-O ) :   0.8109 B(  6-C ,  8-Cl) :   0.7084 B(  7-O , 13-H ) :   0.1518
B(  8-Cl,  9-H ) :  -0.1198

Dispersion correction           -0.004960145
FINAL SINGLE POINT ENERGY      -805.212148782866

DIPOLE MOMENT
-------------

Method             : SCF
Type of density    : Electron Density
Multiplicity       :   2
Irrep              :   0
Energy             :  -805.2071886378344061 Eh
Relativity type    :
Basis              : AO
                                X                 Y                 Z
Electronic contribution:     10.947117815       1.035031436       0.000561352
Nuclear contribution   :    -12.990470183      -0.300646275      -0.000300559
                        -----------------------------------------
Total Dipole Moment    :     -2.043352368       0.734385161       0.000260793
                        -----------------------------------------
Magnitude (a.u.)       :      2.171315392
Magnitude (Debye)      :      5.519045120

Rotational constants in cm-1:             0.100750             0.030491             0.023407
Rotational constants in MHz :          3020.405423           914.110194           701.734011

                             ****ORCA TERMINATED NORMALLY****
TOTAL RUN TIME: 0 days 0 hours 33 minutes 7 seconds 959 msec
