                         Program Version 6.0.0  -   RELEASE  -
|  1> !B3LYP aug-cc-pVTZ d3 TightSCF SlowConv RIJCOSX defgrid2
|  2>
|  3> %pal
|  4> nprocs 4
|  5> end
|  6>
|  7> %scf
|  8> MaxIter 1500
|  9> end
| 10>
| 11> %maxcore 3000
| 12>
| 13> !CPCM
| 14> %cpcm smd true
| 15> SMDsolvent "MeCN"
| 16> surfacetype gepol_ses
| 17> rsolv 2.19
| 18> end
| 19>
| 20> * xyz 1 2
| 21> C          -1.44785730295075      0.00004383668014      0.19466020963487
| 22> C          -0.70463361625558     -1.25916288948137     -0.22052956548119
| 23> C           0.75402143901141     -1.23290095960195      0.33947310722511
| 24> N           1.35243621618336     -0.00003237928940     -0.05272629159437
| 25> H           2.03239855808840     -0.00001354242890     -0.81929831940591
| 26> C           0.75406824525088      1.23284300442693      0.33954722989484
| 27> C          -0.70453653205886      1.25917936755808     -0.22058410201994
| 28> H          -1.17735315978030      2.17530279259209      0.17075301961950
| 29> H          -0.65902932856967      1.35407679956949     -1.31943227945387
| 30> H           1.35320797568110      2.07738723598631     -0.02945728358028
| 31> H           0.70381655246538      1.26167123212667      1.44376020833185
| 32> H           1.35302530838177     -2.07746967992292     -0.02968877997992
| 33> H           0.70390247903722     -1.26179946828858      1.44369537598949
| 34> H          -1.17752329445998     -2.17518232566056      0.17094554694672
| 35> H          -0.65911553793050     -1.35406143771193     -1.31937325462627
| 36> H          -2.44852309487375      0.00006008079951     -0.27520329299314
| 37> H          -1.61728600722014      0.00008813264640      1.28682627149251
| 38> *
| 39>
| 40>                          ****END OF INPUT****

CARTESIAN COORDINATES (ANGSTROEM)
---------------------------------
  C     -1.447857    0.000044    0.194660
  C     -0.704634   -1.259163   -0.220530
  C      0.754021   -1.232901    0.339473
  N      1.352436   -0.000032   -0.052726
  H      2.032399   -0.000014   -0.819298
  C      0.754068    1.232843    0.339547
  C     -0.704537    1.259179   -0.220584
  H     -1.177353    2.175303    0.170753
  H     -0.659029    1.354077   -1.319432
  H      1.353208    2.077387   -0.029457
  H      0.703817    1.261671    1.443760
  H      1.353025   -2.077470   -0.029689
  H      0.703902   -1.261799    1.443695
  H     -1.177523   -2.175182    0.170946
  H     -0.659116   -1.354061   -1.319373
  H     -2.448523    0.000060   -0.275203
  H     -1.617286    0.000088    1.286826

 Total Charge           Charge          ....    1
 Multiplicity           Mult            ....    2
 Number of Electrons    NEL             ....   47
 Basis Dimension        Dim             ....  529

ORBITAL ENERGIES
----------------
                 SPIN UP ORBITALS
  NO   OCC          E(Eh)            E(eV)
   0   1.0000     -14.442469      -392.9996
   1   1.0000     -10.236059      -278.5373
   2   1.0000     -10.236040      -278.5368
   3   1.0000     -10.195810      -277.4421
   4   1.0000     -10.195807      -277.4420
   5   1.0000     -10.180739      -277.0320
   6   1.0000      -1.011945       -27.5364
   7   1.0000      -0.813655       -22.1407
   8   1.0000      -0.793485       -21.5918
   9   1.0000      -0.676641       -18.4123
  10   1.0000      -0.661501       -18.0003
  11   1.0000      -0.603642       -16.4259
  12   1.0000      -0.556688       -15.1483
  13   1.0000      -0.500943       -13.6314
  14   1.0000      -0.487212       -13.2577
  15   1.0000      -0.469802       -12.7840
  16   1.0000      -0.446925       -12.1614
  17   1.0000      -0.434271       -11.8171
  18   1.0000      -0.409649       -11.1471
  19   1.0000      -0.374970       -10.2035
  20   1.0000      -0.373829       -10.1724
  21   1.0000      -0.349248        -9.5035
  22   1.0000      -0.341753        -9.2996
  23   1.0000      -0.298456        -8.1214
  24   0.0000      -0.008209        -0.2234
  25   0.0000       0.005066         0.1378
  26   0.0000       0.009942         0.2705
  27   0.0000       0.010359         0.2819
  28   0.0000       0.029376         0.7993

                 SPIN DOWN ORBITALS
  NO   OCC          E(Eh)            E(eV)
   0   1.0000     -14.425474      -392.5371
   1   1.0000     -10.236182      -278.5407
   2   1.0000     -10.236164      -278.5402
   3   1.0000     -10.193957      -277.3917
   4   1.0000     -10.193955      -277.3916
   5   1.0000     -10.180814      -277.0340
   6   1.0000      -0.981465       -26.7070
   7   1.0000      -0.806036       -21.9334
   8   1.0000      -0.787559       -21.4306
   9   1.0000      -0.666212       -18.1286
  10   1.0000      -0.656457       -17.8631
  11   1.0000      -0.596387       -16.2285
  12   1.0000      -0.546732       -14.8773
  13   1.0000      -0.493746       -13.4355
  14   1.0000      -0.470055       -12.7908
  15   1.0000      -0.460178       -12.5221
  16   1.0000      -0.443590       -12.0707
  17   1.0000      -0.423779       -11.5316
  18   1.0000      -0.399787       -10.8787
  19   1.0000      -0.369692       -10.0598
  20   1.0000      -0.352793        -9.6000
  21   1.0000      -0.347346        -9.4518
  22   1.0000      -0.340209        -9.2576
  23   0.0000      -0.173815        -4.7297
  24   0.0000      -0.007232        -0.1968
  25   0.0000       0.005927         0.1613
  26   0.0000       0.010520         0.2863
  27   0.0000       0.010520         0.2863

MULLIKEN ATOMIC CHARGES AND SPIN POPULATIONS
--------------------------------------------
   0 C :   -0.175062   -0.004799
   1 C :   -0.325872    0.099662
   2 C :   -0.165145   -0.048158
   3 N :   -0.044583    0.774288
   4 H :    0.127866   -0.007663
   5 C :   -0.165318   -0.048162
   6 C :   -0.325971    0.099664
   7 H :    0.210913    0.015106
   8 H :    0.161634    0.004061
   9 H :    0.277278   -0.000008
  10 H :    0.211693    0.038074
  11 H :    0.277135    0.000003
  12 H :    0.211720    0.038095
  13 H :    0.210890    0.015097
  14 H :    0.161573    0.004065
  15 H :    0.158396    0.017633
  16 H :    0.192854    0.003042
Sum of atomic charges         :    1.0000000

LOEWDIN ATOMIC CHARGES AND SPIN POPULATIONS
-------------------------------------------
   0 C :    0.286467    0.016185
   1 C :    0.331445    0.057422
   2 C :    0.291321    0.102437
   3 N :    0.698283    0.502523
   4 H :   -0.145909    0.068405
   5 C :    0.291328    0.102432
   6 C :    0.331438    0.057427
   7 H :   -0.112876    0.012296
   8 H :   -0.115481    0.005835
   9 H :   -0.098697    0.003655
  10 H :   -0.099007    0.019492
  11 H :   -0.098702    0.003655
  12 H :   -0.099000    0.019499
  13 H :   -0.112875    0.012293
  14 H :   -0.115484    0.005836
  15 H :   -0.114343    0.009198
  16 H :   -0.117909    0.001408

  Mayer bond orders larger than 0.100000
B(  0-C ,  1-C ) :   0.9491 B(  0-C ,  6-C ) :   0.9495 B(  0-C , 15-H ) :   0.9868
B(  0-C , 16-H ) :   0.9566 B(  1-C ,  2-C ) :   0.8952 B(  1-C ,  3-N ) :   0.1236
B(  1-C , 13-H ) :   0.9230 B(  1-C , 14-H ) :   1.0099 B(  2-C ,  3-N ) :   0.9098
B(  2-C , 11-H ) :   0.9321 B(  2-C , 12-H ) :   0.9261 B(  3-N ,  4-H ) :   0.9175
B(  3-N ,  5-C ) :   0.9098 B(  3-N ,  6-C ) :   0.1236 B(  5-C ,  6-C ) :   0.8952
B(  5-C ,  9-H ) :   0.9321 B(  5-C , 10-H ) :   0.9262 B(  6-C ,  7-H ) :   0.9229
B(  6-C ,  8-H ) :   1.0098

Dispersion correction           -0.024176812
FINAL SINGLE POINT ENERGY      -251.664757303520

DIPOLE MOMENT
-------------

Method             : SCF
Type of density    : Electron Density
Multiplicity       :   2
Irrep              :   0
Energy             :  -251.6405804912805877 Eh
Relativity type    :
Basis              : AO
                                X                 Y                 Z
Electronic contribution:      2.941641638      -0.000110565      -0.267083323
Nuclear contribution   :     -1.624364743       0.000100191       0.049600711
                        -----------------------------------------
Total Dipole Moment    :      1.317276895      -0.000010374      -0.217482613
                        -----------------------------------------
Magnitude (a.u.)       :      1.335109398
Magnitude (Debye)      :      3.393578398

Rotational constants in cm-1:             0.150674             0.148298             0.085270
Rotational constants in MHz :          4517.103915          4445.872601          2556.320795

                             ****ORCA TERMINATED NORMALLY****
TOTAL RUN TIME: 0 days 0 hours 2 minutes 48 seconds 654 msec
