                         Program Version 6.0.0  -   RELEASE  -
|  1> !TPSSh opt aug-cc-pVTZ d3 TightSCF SlowConv RIJCOSX defgrid2
|  2>
|  3> %pal
|  4> nprocs 8
|  5> end
|  6>
|  7> %scf
|  8> MaxIter 1500
|  9> end
| 10>
| 11> %maxcore 3500
| 12>
| 13> !CPCM
| 14> %cpcm smd true
| 15> SMDsolvent "MeCN"
| 16> surfacetype gepol_ses
| 17> rsolv 2.19
| 18> end
| 19>
| 20> * xyz 0 1
| 21> C           0.94968287453071     -1.27993729727395      0.00000683726847
| 22> C           2.32072584922403     -1.03066468402730     -0.00000570192654
| 23> C           2.79045486785265      0.28126328538775     -0.00000619644263
| 24> C           1.88129493900205      1.34320110702256      0.00000552102250
| 25> C           0.51414900986878      1.09690334373603      0.00001977591165
| 26> C           0.03124775758730     -0.22186358373352      0.00001975571628
| 27> C          -1.40109719375212     -0.51811607942485      0.00002773818787
| 28> N          -2.27722630544222      0.40983670208196      0.00003187543002
| 29> O          -3.54943597920683     -0.07892856387383      0.00003589961153
| 30> H          -4.10699565150034      0.71269395667835      0.00004041054052
| 31> H          -1.72077053189788     -1.57247842719527      0.00002621709873
| 32> H          -0.20517984986564      1.91961492482438      0.00002936627338
| 33> H           2.24665800678188      2.37456842670514      0.00000344087776
| 34> H           3.86637191838654      0.47947397298735     -0.00001641660649
| 35> H           3.02594458116043     -1.86704493909579     -0.00001599324974
| 36> H           0.58187010727067     -2.31112044479903      0.00000487028669
| 37> *
| 38>
| 39>                          ****END OF INPUT****
 Total Charge           Charge          ....    0
 Multiplicity           Mult            ....    1
 Number of Electrons    NEL             ....   64
Dispersion correction           -0.018455226
FINAL SINGLE POINT ENERGY      -401.074004107353
Dispersion correction             ... done (  0.1 sec)
Dispersion correction           -0.018471699
FINAL SINGLE POINT ENERGY      -401.075165480650
Dispersion correction             ... done (  0.1 sec)
Dispersion correction           -0.018477604
FINAL SINGLE POINT ENERGY      -401.075403544783
Dispersion correction             ... done (  0.0 sec)
Dispersion correction           -0.018472963
FINAL SINGLE POINT ENERGY      -401.075457303761
Dispersion correction             ... done (  0.1 sec)
Dispersion correction           -0.018471049
FINAL SINGLE POINT ENERGY      -401.075461204611
Dispersion correction             ... done (  0.1 sec)
                    ***********************HURRAY********************

CARTESIAN COORDINATES (ANGSTROEM)
---------------------------------
  C      0.940098   -1.268493   -0.000152
  C      2.310792   -1.031894   -0.000339
  C      2.791353    0.273615   -0.000163
  C      1.894048    1.343398    0.000343
  C      0.527080    1.112059    0.000496
  C      0.033917   -0.201514    0.000129
  C     -1.393705   -0.508406    0.000200
  N     -2.275679    0.417515   -0.001260
  O     -3.574704   -0.122353   -0.000613
  H     -4.137809    0.667539   -0.000504
  H     -1.691613   -1.556621    0.001873
  H     -0.166688    1.943166    0.001016
  H      2.266288    2.360807    0.000085
  H      3.858317    0.460547   -0.000571
  H      3.001260   -1.866462   -0.000572
  H      0.564738   -2.285503    0.000239

 Multiplicity           Mult            ....    1
 Number of Electrons    NEL             ....   64
 Basis Dimension        Dim             ....  575

ORBITAL ENERGIES
----------------

  NO   OCC          E(Eh)            E(eV)
   0   2.0000     -19.099615      -519.7270
   1   2.0000     -14.304860      -389.2550
   2   2.0000     -10.151823      -276.2451
   3   2.0000     -10.133485      -275.7462
   4   2.0000     -10.121554      -275.4215
   5   2.0000     -10.120023      -275.3798
   6   2.0000     -10.119318      -275.3606
   7   2.0000     -10.118632      -275.3420
   8   2.0000     -10.118348      -275.3342
   9   2.0000      -1.060419       -28.8555
  10   2.0000      -0.863158       -23.4877
  11   2.0000      -0.829762       -22.5790
  12   2.0000      -0.738175       -20.0868
  13   2.0000      -0.731214       -19.8973
  14   2.0000      -0.622274       -16.9329
  15   2.0000      -0.592965       -16.1354
  16   2.0000      -0.550170       -14.9709
  17   2.0000      -0.513797       -13.9811
  18   2.0000      -0.494788       -13.4639
  19   2.0000      -0.451565       -12.2877
  20   2.0000      -0.439260       -11.9529
  21   2.0000      -0.417669       -11.3653
  22   2.0000      -0.405252       -11.0275
  23   2.0000      -0.404375       -11.0036
  24   2.0000      -0.396011       -10.7760
  25   2.0000      -0.363595        -9.8939
  26   2.0000      -0.334794        -9.1102
  27   2.0000      -0.327912        -8.9229
  28   2.0000      -0.287703        -7.8288
  29   2.0000      -0.273928        -7.4540
  30   2.0000      -0.251797        -6.8517
  31   2.0000      -0.224277        -6.1029
  32   0.0000      -0.065854        -1.7920
  33   0.0000      -0.027644        -0.7522
  34   0.0000      -0.003076        -0.0837
  35   0.0000       0.003349         0.0911
  36   0.0000       0.012618         0.3434

MULLIKEN ATOMIC CHARGES
-----------------------
   0 C :   -0.771517
   1 C :   -0.396362
   2 C :   -0.145927
   3 C :   -0.524174
   4 C :   -0.579938
   5 C :    1.383680
   6 C :    0.429537
   7 N :   -0.650439
   8 O :   -0.294861
   9 H :    0.164436
  10 H :    0.291458
  11 H :   -0.014129
  12 H :    0.417477
  13 H :    0.355281
  14 H :    0.444030
  15 H :   -0.108554
Sum of atomic charges:   -0.0000000

LOEWDIN ATOMIC CHARGES
----------------------
   0 C :    0.202126
   1 C :    0.201715
   2 C :    0.198283
   3 C :    0.199958
   4 C :    0.196996
   5 C :   -0.174246
   6 C :   -0.025956
   7 N :    0.140625
   8 O :    0.662287
   9 H :   -0.519582
  10 H :   -0.185271
  11 H :   -0.190589
  12 H :   -0.177390
  13 H :   -0.178039
  14 H :   -0.177291
  15 H :   -0.173628

  Mayer bond orders larger than 0.100000
B(  0-C ,  1-C ) :   1.3370 B(  0-C ,  4-C ) :  -0.2511 B(  0-C ,  5-C ) :   0.4180
B(  0-C , 14-H ) :  -0.1593 B(  0-C , 15-H ) :   1.5499 B(  1-C ,  2-C ) :   1.4056
B(  1-C , 14-H ) :   0.5833 B(  1-C , 15-H ) :  -0.1035 B(  2-C ,  3-C ) :   1.2959
B(  2-C ,  5-C ) :  -0.1248 B(  2-C ,  6-C ) :   0.1324 B(  2-C , 12-H ) :   0.1018
B(  2-C , 13-H ) :   0.6612 B(  3-C ,  4-C ) :   1.3680 B(  3-C , 12-H ) :   0.6102
B(  4-C ,  5-C ) :   0.6288 B(  4-C ,  6-C ) :   0.2066 B(  4-C , 11-H ) :   1.1954
B(  5-C ,  6-C ) :   0.3222 B(  5-C , 12-H ) :   0.1279 B(  5-C , 14-H ) :   0.1520
B(  5-C , 15-H ) :  -0.1036 B(  6-C ,  7-N ) :   0.7091 B(  6-C , 10-H ) :   0.7150
B(  6-C , 15-H ) :  -0.1322 B(  7-N ,  8-O ) :   0.6448 B(  8-O ,  9-H ) :   0.9855
B( 11-H , 15-H ) :   0.1257

Dispersion correction           -0.018470603
FINAL SINGLE POINT ENERGY      -401.075461967682

DIPOLE MOMENT
-------------

Method             : SCF
Type of density    : Electron Density
Multiplicity       :   1
Irrep              :   0
Energy             :  -401.0569913648319584 Eh
Relativity type    :
Basis              : AO
                                X                 Y                 Z
Electronic contribution:     -2.939611474       0.145481567      -0.001080955
Nuclear contribution   :      3.401881191      -0.271664427       0.002523952
                        -----------------------------------------
Total Dipole Moment    :      0.462269716      -0.126182860       0.001442997
                        -----------------------------------------
Magnitude (a.u.)       :      0.479184189
Magnitude (Debye)      :      1.217989413

Rotational constants in cm-1:             0.173691             0.029841             0.025466
Rotational constants in MHz :          5207.138741           894.616160           763.451002

                             ****ORCA TERMINATED NORMALLY****
TOTAL RUN TIME: 0 days 0 hours 19 minutes 48 seconds 755 msec
