                         Program Version 6.0.0  -   RELEASE  -
|  1> !r2SCAN aug-cc-pVTZ d3 TightSCF SlowConv RIJCOSX defgrid2
|  2>
|  3> %pal
|  4> nprocs 15
|  5> end
|  6>
|  7> %scf
|  8> MaxIter 1500
|  9> end
| 10>
| 11> %maxcore 3500
| 12>
| 13> !CPCM
| 14> %cpcm smd true
| 15> SMDsolvent "WATER"
| 16> surfacetype gepol_ses
| 17> rsolv 1.40
| 18> end
| 19>
| 20> * xyz -1 2
| 21> C           0.00000004903308      0.00000285676658     -0.07927677165041
| 22> C          -1.16509262301003     -0.35747694639887      0.71050337241250
| 23> C           1.16509408020432      0.35747595685912      0.71050209383188
| 24> H          -2.06362612463752     -0.63312787458135      0.14412716721423
| 25> H           2.06363121454948      0.63312802636862      0.14412668715351
| 26> C          -1.16509507944368     -0.35747268029138      2.08215495800193
| 27> C           1.16509160172280      0.35747686687021      2.08215370735606
| 28> H          -2.06363192155032     -0.63312031850306      2.64853168475760
| 29> H           2.06362610689310      0.63313254757272      2.64853030477196
| 30> C           0.00000131049034     -0.00000637822162      2.87193489848665
| 31> O           0.00000216772010     -0.00000733437022      4.12586654778909
| 32> O          -0.00000078197165     -0.00000472207076     -1.33320665012500
| 33> *
| 34>
| 35>                          ****END OF INPUT****

CARTESIAN COORDINATES (ANGSTROEM)
---------------------------------
  C      0.000000    0.000003   -0.079277
  C     -1.165093   -0.357477    0.710503
  C      1.165094    0.357476    0.710502
  H     -2.063626   -0.633128    0.144127
  H      2.063631    0.633128    0.144127
  C     -1.165095   -0.357473    2.082155
  C      1.165092    0.357477    2.082154
  H     -2.063632   -0.633120    2.648532
  H      2.063626    0.633133    2.648530
  C      0.000001   -0.000006    2.871935
  O      0.000002   -0.000007    4.125867
  O     -0.000001   -0.000005   -1.333207

 Total Charge           Charge          ....   -1
 Multiplicity           Mult            ....    2
 Number of Electrons    NEL             ....   57
 Basis Dimension        Dim             ....  460

ORBITAL ENERGIES
----------------
                 SPIN UP ORBITALS
  NO   OCC          E(Eh)            E(eV)
   0   1.0000     -18.922599      -514.9101
   1   1.0000     -18.922596      -514.9100
   2   1.0000     -10.090478      -274.5759
   3   1.0000     -10.090458      -274.5753
   4   1.0000     -10.033263      -273.0190
   5   1.0000     -10.033247      -273.0185
   6   1.0000     -10.032719      -273.0042
   7   1.0000     -10.032699      -273.0036
   8   1.0000      -0.976837       -26.5811
   9   1.0000      -0.974880       -26.5278
  10   1.0000      -0.788082       -21.4448
  11   1.0000      -0.709456       -19.3053
  12   1.0000      -0.653440       -17.7810
  13   1.0000      -0.569579       -15.4990
  14   1.0000      -0.534014       -14.5312
  15   1.0000      -0.443483       -12.0678
  16   1.0000      -0.437131       -11.8949
  17   1.0000      -0.416902       -11.3445
  18   1.0000      -0.387096       -10.5334
  19   1.0000      -0.378488       -10.2992
  20   1.0000      -0.376347       -10.2409
  21   1.0000      -0.357160        -9.7188
  22   1.0000      -0.349870        -9.5205
  23   1.0000      -0.323153        -8.7934
  24   1.0000      -0.264705        -7.2030
  25   1.0000      -0.243715        -6.6318
  26   1.0000      -0.220171        -5.9911
  27   1.0000      -0.213224        -5.8021
  28   1.0000      -0.153630        -4.1805
  29   0.0000      -0.037093        -1.0093
  30   0.0000       0.000158         0.0043
  31   0.0000       0.011263         0.3065
  32   0.0000       0.025169         0.6849
  33   0.0000       0.027448         0.7469

                 SPIN DOWN ORBITALS
  NO   OCC          E(Eh)            E(eV)
   0   1.0000     -18.914965      -514.7024
   1   1.0000     -18.914961      -514.7023
   2   1.0000     -10.088525      -274.5227
   3   1.0000     -10.088506      -274.5222
   4   1.0000     -10.031947      -272.9832
   5   1.0000     -10.031932      -272.9828
   6   1.0000     -10.031404      -272.9684
   7   1.0000     -10.031384      -272.9678
   8   1.0000      -0.965483       -26.2721
   9   1.0000      -0.963397       -26.2154
  10   1.0000      -0.781191       -21.2573
  11   1.0000      -0.705756       -19.2046
  12   1.0000      -0.641338       -17.4517
  13   1.0000      -0.564548       -15.3621
  14   1.0000      -0.528952       -14.3935
  15   1.0000      -0.439489       -11.9591
  16   1.0000      -0.435657       -11.8548
  17   1.0000      -0.412036       -11.2121
  18   1.0000      -0.375797       -10.2260
  19   1.0000      -0.373400       -10.1607
  20   1.0000      -0.365789        -9.9536
  21   1.0000      -0.346177        -9.4200
  22   1.0000      -0.330996        -9.0068
  23   1.0000      -0.321006        -8.7350
  24   1.0000      -0.240623        -6.5477
  25   1.0000      -0.233059        -6.3418
  26   1.0000      -0.214203        -5.8288
  27   1.0000      -0.207554        -5.6478
  28   0.0000      -0.120060        -3.2670
  29   0.0000      -0.020371        -0.5543
  30   0.0000       0.012417         0.3379
  31   0.0000       0.023141         0.6297
  32   0.0000       0.025981         0.7070

MULLIKEN ATOMIC CHARGES AND SPIN POPULATIONS
--------------------------------------------
   0 C :    1.051609    0.110921
   1 C :   -0.627819    0.072940
   2 C :   -0.627606    0.072991
   3 H :    0.427203   -0.000687
   4 H :    0.427246   -0.000730
   5 C :   -0.627576    0.072972
   6 C :   -0.627718    0.072894
   7 H :    0.427218   -0.000750
   8 H :    0.427183   -0.000651
   9 C :    1.051422    0.110896
  10 O :   -1.150558    0.244610
  11 O :   -1.150602    0.244595
Sum of atomic charges         :   -1.0000000

LOEWDIN ATOMIC CHARGES AND SPIN POPULATIONS
-------------------------------------------
   0 C :   -0.702894    0.124363
   1 C :    0.141283    0.075010
   2 C :    0.141285    0.075017
   3 H :   -0.195889    0.007400
   4 H :   -0.195882    0.007402
   5 C :    0.141285    0.075017
   6 C :    0.141282    0.075010
   7 H :   -0.195883    0.007402
   8 H :   -0.195887    0.007400
   9 C :   -0.702893    0.124363
  10 O :    0.312096    0.210808
  11 O :    0.312098    0.210808

  Mayer bond orders larger than 0.100000
B(  0-C ,  1-C ) :   1.0045 B(  0-C ,  2-C ) :   1.0046 B(  0-C ,  5-C ) :  -0.1285
B(  0-C ,  6-C ) :  -0.1286 B(  0-C ,  9-C ) :   0.1955 B(  0-C , 11-O ) :   0.5007
B(  1-C ,  2-C ) :   0.4924 B(  1-C ,  3-H ) :   0.4667 B(  1-C ,  5-C ) :   1.4220
B(  1-C ,  6-C ) :  -0.1886 B(  1-C ,  9-C ) :  -0.1285 B(  1-C , 11-O ) :   0.1709
B(  2-C ,  4-H ) :   0.4667 B(  2-C ,  5-C ) :  -0.1886 B(  2-C ,  6-C ) :   1.4218
B(  2-C ,  9-C ) :  -0.1285 B(  2-C , 11-O ) :   0.1709 B(  5-C ,  6-C ) :   0.4923
B(  5-C ,  7-H ) :   0.4667 B(  5-C ,  9-C ) :   1.0047 B(  5-C , 10-O ) :   0.1708
B(  6-C ,  8-H ) :   0.4668 B(  6-C ,  9-C ) :   1.0047 B(  6-C , 10-O ) :   0.1709
B(  9-C , 10-O ) :   0.5007

Dispersion correction           -0.003377392
FINAL SINGLE POINT ENERGY      -381.562526293578

DIPOLE MOMENT
-------------

Method             : SCF
Type of density    : Electron Density
Multiplicity       :   2
Irrep              :   0
Energy             :  -381.5591489014516355 Eh
Relativity type    :
Basis              : AO
                                X                 Y                 Z
Electronic contribution:     -0.000000947      -0.000006392      -0.000010215
Nuclear contribution   :     -0.000001132       0.000017886      -0.000000443
                        -----------------------------------------
Total Dipole Moment    :     -0.000002079       0.000011494      -0.000010658
                        -----------------------------------------
Magnitude (a.u.)       :      0.000015812
Magnitude (Debye)      :      0.000040191

Rotational constants in cm-1:             0.187010             0.052742             0.041140
Rotational constants in MHz :          5606.406459          1581.174709          1233.336765

                             ****ORCA TERMINATED NORMALLY****
TOTAL RUN TIME: 0 days 0 hours 2 minutes 12 seconds 907 msec
