                         Program Version 6.0.0  -   RELEASE  -
|  1> !r2SCANh opt aug-cc-pVTZ d3 TightSCF SlowConv RIJCOSX defgrid2
|  2>
|  3> %pal
|  4> nprocs 8
|  5> end
|  6>
|  7> %scf
|  8> MaxIter 1500
|  9> end
| 10>
| 11> %maxcore 3500
| 12>
| 13> !CPCM
| 14> %cpcm smd true
| 15> SMDsolvent "MeCN"
| 16> surfacetype gepol_ses
| 17> rsolv 2.19
| 18> end
| 19>
| 20> * xyz 0 1
| 21> C           2.43031351008729     -0.70749139029856      0.00001403239272
| 22> C           2.43032444825569      0.70745716976960      0.00001780057511
| 23> C           1.24225650957686      1.40066986227340      0.00001298600543
| 24> C           0.00000747832604      0.71479447718917      0.00000542687051
| 25> C          -1.24223111805275      1.40068893561610      0.00000324875952
| 26> C          -2.43030983452578      0.70749421287076     -0.00000358520312
| 27> C          -2.43032103578901     -0.70745426001962     -0.00000960120256
| 28> C          -1.24225352108494     -1.40066808823521     -0.00000641420954
| 29> C          -0.00000405709778     -0.71479302978643      0.00000150500237
| 30> C           1.24223524877496     -1.40068686163162      0.00000460886950
| 31> H           1.23824372924118     -2.49527550154318      0.00000243863973
| 32> H          -1.23827753101703     -2.49525698617010     -0.00000852848414
| 33> H          -3.38175156931066     -1.24754932619836     -0.00001429910497
| 34> H          -3.38173131512848      1.24760412689582     -0.00000496639229
| 35> H          -1.23823830440863      2.49527781567030      0.00000665226192
| 36> H           1.23827983240145      2.49525951167016      0.00001366019695
| 37> H           3.38175416757919      1.24755290950869      0.00002330946105
| 38> H           3.38173466217241     -1.24760147758094      0.00001812556182
| 39> *
| 40>
| 41>                          ****END OF INPUT****
 Total Charge           Charge          ....    0
 Multiplicity           Mult            ....    1
 Number of Electrons    NEL             ....   68
Dispersion correction           -0.006581518
FINAL SINGLE POINT ENERGY      -385.799282165258
Dispersion correction             ... done (  0.0 sec)
Dispersion correction           -0.006597978
FINAL SINGLE POINT ENERGY      -385.800308891084
Dispersion correction             ... done (  0.1 sec)
Dispersion correction           -0.006599446
FINAL SINGLE POINT ENERGY      -385.800313536676
Dispersion correction             ... done (  0.0 sec)
                    ***********************HURRAY********************

CARTESIAN COORDINATES (ANGSTROEM)
---------------------------------
  C      2.418836   -0.704756   -0.000218
  C      2.418847    0.704722   -0.000180
  C      1.236830    1.396858   -0.000079
  C      0.000008    0.713109   -0.000008
  C     -1.236804    1.396879    0.000076
  C     -2.418831    0.704759    0.000200
  C     -2.418840   -0.704717    0.000231
  C     -1.236827   -1.396858    0.000100
  C     -0.000003   -0.713111   -0.000011
  C      1.236811   -1.396877   -0.000114
  H      1.233763   -2.479701   -0.000012
  H     -1.233800   -2.479683   -0.000006
  H     -3.359767   -1.238417   -0.000149
  H     -3.359752    1.238473   -0.000205
  H     -1.233754    2.479704   -0.000052
  H      1.233792    2.479685    0.000057
  H      3.359770    1.238428    0.000267
  H      3.359752   -1.238475    0.000179

 Multiplicity           Mult            ....    1
 Number of Electrons    NEL             ....   68
 Basis Dimension        Dim             ....  644

ORBITAL ENERGIES
----------------

  NO   OCC          E(Eh)            E(eV)
   0   2.0000     -10.171069      -276.7689
   1   2.0000     -10.170658      -276.7577
   2   2.0000     -10.159672      -276.4587
   3   2.0000     -10.159663      -276.4585
   4   2.0000     -10.159583      -276.4563
   5   2.0000     -10.159576      -276.4561
   6   2.0000     -10.158985      -276.4400
   7   2.0000     -10.158984      -276.4400
   8   2.0000     -10.158628      -276.4303
   9   2.0000     -10.158620      -276.4301
  10   2.0000      -0.881450       -23.9855
  11   2.0000      -0.825915       -22.4743
  12   2.0000      -0.777036       -21.1442
  13   2.0000      -0.743149       -20.2221
  14   2.0000      -0.720033       -19.5931
  15   2.0000      -0.623231       -16.9590
  16   2.0000      -0.608738       -16.5646
  17   2.0000      -0.592182       -16.1141
  18   2.0000      -0.507689       -13.8149
  19   2.0000      -0.501960       -13.6590
  20   2.0000      -0.486516       -13.2388
  21   2.0000      -0.436438       -11.8761
  22   2.0000      -0.432752       -11.7758
  23   2.0000      -0.406932       -11.0732
  24   2.0000      -0.406106       -11.0507
  25   2.0000      -0.395064       -10.7502
  26   2.0000      -0.387316       -10.5394
  27   2.0000      -0.356018        -9.6877
  28   2.0000      -0.330720        -8.9994
  29   2.0000      -0.324959        -8.8426
  30   2.0000      -0.316751        -8.6192
  31   2.0000      -0.288872        -7.8606
  32   2.0000      -0.248483        -6.7616
  33   2.0000      -0.219468        -5.9720
  34   0.0000      -0.059641        -1.6229
  35   0.0000      -0.030551        -0.8313
  36   0.0000       0.001364         0.0371
  37   0.0000       0.010510         0.2860
  38   0.0000       0.023182         0.6308

MULLIKEN ATOMIC CHARGES
-----------------------
   0 C :   -0.436572
   1 C :   -0.435301
   2 C :   -1.224201
   3 C :    2.008251
   4 C :   -1.221968
   5 C :   -0.435458
   6 C :   -0.433186
   7 C :   -1.225660
   8 C :    2.000670
   9 C :   -1.224689
  10 H :    0.007673
  11 H :    0.005379
  12 H :    0.655515
  13 H :    0.644337
  14 H :    0.010853
  15 H :    0.002354
  16 H :    0.653179
  17 H :    0.648824
Sum of atomic charges:    0.0000000

LOEWDIN ATOMIC CHARGES
----------------------
   0 C :    0.200522
   1 C :    0.200525
   2 C :    0.216564
   3 C :   -0.132151
   4 C :    0.216566
   5 C :    0.200522
   6 C :    0.200522
   7 C :    0.216563
   8 C :   -0.132151
   9 C :    0.216565
  10 H :   -0.171700
  11 H :   -0.171697
  12 H :   -0.179311
  13 H :   -0.179313
  14 H :   -0.171697
  15 H :   -0.171699
  16 H :   -0.179315
  17 H :   -0.179313

  Mayer bond orders larger than 0.100000
B(  0-C ,  1-C ) :   1.0487 B(  0-C ,  3-C ) :  -0.3337 B(  0-C ,  9-C ) :   1.1528
B(  0-C , 17-H ) :   0.2590 B(  1-C ,  2-C ) :   1.1485 B(  1-C ,  8-C ) :  -0.3338
B(  1-C , 16-H ) :   0.2522 B(  2-C ,  3-C ) :  -0.4530 B(  2-C ,  4-C ) :   0.6202
B(  2-C ,  7-C ) :  -0.1102 B(  2-C ,  8-C ) :  -0.3277 B(  2-C , 15-H ) :   1.4906
B(  2-C , 16-H ) :  -0.2186 B(  3-C ,  4-C ) :  -0.4466 B(  3-C ,  6-C ) :  -0.3360
B(  3-C ,  7-C ) :  -0.3257 B(  3-C ,  8-C ) :   1.3421 B(  3-C ,  9-C ) :  -0.3259
B(  3-C , 14-H ) :  -0.1504 B(  3-C , 15-H ) :  -0.1556 B(  4-C ,  5-C ) :   1.1486
B(  4-C ,  8-C ) :  -0.3217 B(  4-C ,  9-C ) :  -0.1080 B(  4-C , 13-H ) :  -0.2149
B(  4-C , 14-H ) :   1.4738 B(  5-C ,  6-C ) :   1.0465 B(  5-C ,  8-C ) :  -0.3326
B(  5-C , 13-H ) :   0.2656 B(  6-C ,  7-C ) :   1.1535 B(  6-C , 12-H ) :   0.2497
B(  7-C ,  8-C ) :  -0.4466 B(  7-C ,  9-C ) :   0.6146 B(  7-C , 11-H ) :   1.4842
B(  7-C , 12-H ) :  -0.2174 B(  8-C ,  9-C ) :  -0.4476 B(  8-C , 10-H ) :  -0.1515
B(  8-C , 11-H ) :  -0.1534 B(  9-C , 10-H ) :   1.4801 B(  9-C , 17-H ) :  -0.2164

Dispersion correction           -0.006599572
FINAL SINGLE POINT ENERGY      -385.800313523483

DIPOLE MOMENT
-------------

Method             : SCF
Type of density    : Electron Density
Multiplicity       :   1
Irrep              :   0
Energy             :  -385.7937139512821432 Eh
Relativity type    :
Basis              : AO
                                X                 Y                 Z
Electronic contribution:     -0.000000313      -0.000012727      -0.000053207
Nuclear contribution   :     -0.000013607       0.000007308       0.000073263
                        -----------------------------------------
Total Dipole Moment    :     -0.000013919      -0.000005419       0.000020055
                        -----------------------------------------
Magnitude (a.u.)       :      0.000025007
Magnitude (Debye)      :      0.000063562

Rotational constants in cm-1:             0.104837             0.041497             0.029729
Rotational constants in MHz :          3142.928142          1244.043439           891.261563

                             ****ORCA TERMINATED NORMALLY****
TOTAL RUN TIME: 0 days 0 hours 16 minutes 8 seconds 727 msec
