                         Program Version 6.0.0  -   RELEASE  -
|  1> !B3LYP freq aug-cc-pVTZ d3 TightSCF SlowConv RIJCOSX defgrid2
|  2>
|  3> %pal
|  4> nprocs 12
|  5>
|  6> end
|  7>
|  8> %scf
|  9> MaxIter 1500
| 10> end
| 11>
| 12> %maxcore 5000
| 13>
| 14> !CPCM
| 15> %cpcm smd true
| 16> SMDsolvent "MeCN"
| 17> surfacetype gepol_ses
| 18> rsolv 2.19
| 19> end
| 20>
| 21> * xyz 1 2
| 22> C           0.87171578184958     -1.42409617554909     -0.00078298087230
| 23> C           2.10081171216337     -0.72270874238652      0.00061323635402
| 24> C           2.17099759034662      0.67935400457293     -0.00014281385561
| 25> C           1.02697984299500      1.44444449473944     -0.00114312335860
| 26> C          -0.22201911892762      0.76848530655264     -0.00146840464744
| 27> C          -0.24030820401198     -0.64714723415155     -0.00228783185100
| 28> O          -1.55633527064312     -1.08783837058641     -0.00249859382250
| 29> C          -2.31305708290771      0.00361945205757     -0.00009877825408
| 30> C          -1.55266215303969      1.17889520030021      0.00028262619348
| 31> H          -1.95194736639573      2.17851901349649      0.00292789406873
| 32> H          -3.38068632041689     -0.14320812911255      0.00240647672802
| 33> H           1.06393486598402      2.52353384668281     -0.00173006009596
| 34> H           3.14008472832694      1.15499247773176      0.00062184244661
| 35> H           3.01703488037077     -1.29526987852963      0.00317888312848
| 36> H           0.83451761430647     -2.50261466581811      0.00019222783818
| 37> *
| 38>
| 39>                          ****END OF INPUT****

CARTESIAN COORDINATES (ANGSTROEM)
---------------------------------
  C      0.871716   -1.424096   -0.000783
  C      2.100812   -0.722709    0.000613
  C      2.170998    0.679354   -0.000143
  C      1.026980    1.444444   -0.001143
  C     -0.222019    0.768485   -0.001468
  C     -0.240308   -0.647147   -0.002288
  O     -1.556335   -1.087838   -0.002499
  C     -2.313057    0.003619   -0.000099
  C     -1.552662    1.178895    0.000283
  H     -1.951947    2.178519    0.002928
  H     -3.380686   -0.143208    0.002406
  H      1.063935    2.523534   -0.001730
  H      3.140085    1.154992    0.000622
  H      3.017035   -1.295270    0.003179
  H      0.834518   -2.502615    0.000192

 Total Charge           Charge          ....    1
 Multiplicity           Mult            ....    2
 Number of Electrons    NEL             ....   61
 Basis Dimension        Dim             ....  552

ORBITAL ENERGIES
----------------
                 SPIN UP ORBITALS
  NO   OCC          E(Eh)            E(eV)
   0   1.0000     -19.252382      -523.8839
   1   1.0000     -10.308909      -280.5197
   2   1.0000     -10.281755      -279.7808
   3   1.0000     -10.239267      -278.6246
   4   1.0000     -10.237309      -278.5713
   5   1.0000     -10.235846      -278.5315
   6   1.0000     -10.229743      -278.3655
   7   1.0000     -10.224974      -278.2357
   8   1.0000     -10.206361      -277.7292
   9   1.0000      -1.175469       -31.9861
  10   1.0000      -0.910122       -24.7657
  11   1.0000      -0.855694       -23.2846
  12   1.0000      -0.801830       -21.8189
  13   1.0000      -0.777026       -21.1440
  14   1.0000      -0.683124       -18.5887
  15   1.0000      -0.647737       -17.6258
  16   1.0000      -0.632561       -17.2129
  17   1.0000      -0.565607       -15.3909
  18   1.0000      -0.542636       -14.7659
  19   1.0000      -0.520126       -14.1534
  20   1.0000      -0.519301       -14.1309
  21   1.0000      -0.481310       -13.0971
  22   1.0000      -0.469673       -12.7804
  23   1.0000      -0.456400       -12.4193
  24   1.0000      -0.431443       -11.7402
  25   1.0000      -0.407073       -11.0770
  26   1.0000      -0.403237       -10.9726
  27   1.0000      -0.384683       -10.4678
  28   1.0000      -0.352301        -9.5866
  29   1.0000      -0.294391        -8.0108
  30   1.0000      -0.275483        -7.4963
  31   0.0000      -0.084864        -2.3093
  32   0.0000      -0.037494        -1.0203
  33   0.0000      -0.009942        -0.2705
  34   0.0000      -0.005473        -0.1489
  35   0.0000       0.006065         0.1650

                 SPIN DOWN ORBITALS
  NO   OCC          E(Eh)            E(eV)
   0   1.0000     -19.251536      -523.8609
   1   1.0000     -10.303871      -280.3826
   2   1.0000     -10.280463      -279.7456
   3   1.0000     -10.237198      -278.5683
   4   1.0000     -10.236571      -278.5512
   5   1.0000     -10.231517      -278.4137
   6   1.0000     -10.226636      -278.2809
   7   1.0000     -10.224992      -278.2362
   8   1.0000     -10.207788      -277.7680
   9   1.0000      -1.171886       -31.8886
  10   1.0000      -0.905134       -24.6300
  11   1.0000      -0.847733       -23.0680
  12   1.0000      -0.798909       -21.7394
  13   1.0000      -0.764891       -20.8138
  14   1.0000      -0.678877       -18.4732
  15   1.0000      -0.642567       -17.4851
  16   1.0000      -0.628180       -17.0936
  17   1.0000      -0.563043       -15.3212
  18   1.0000      -0.538735       -14.6597
  19   1.0000      -0.517035       -14.0692
  20   1.0000      -0.505635       -13.7590
  21   1.0000      -0.479866       -13.0578
  22   1.0000      -0.466768       -12.7014
  23   1.0000      -0.454458       -12.3664
  24   1.0000      -0.428562       -11.6618
  25   1.0000      -0.401521       -10.9259
  26   1.0000      -0.391657       -10.6575
  27   1.0000      -0.383166       -10.4265
  28   1.0000      -0.327283        -8.9058
  29   1.0000      -0.288646        -7.8545
  30   0.0000      -0.201522        -5.4837
  31   0.0000      -0.057281        -1.5587
  32   0.0000      -0.026674        -0.7258
  33   0.0000      -0.005206        -0.1417
  34   0.0000       0.006308         0.1716

MULLIKEN ATOMIC CHARGES AND SPIN POPULATIONS
--------------------------------------------
   0 C :   -0.926285    0.012693
   1 C :   -0.061366    0.281571
   2 C :   -0.529857   -0.092707
   3 C :   -0.544695    0.204365
   4 C :    1.126871    0.037143
   5 C :    0.450297    0.067627
   6 O :   -0.522653    0.015376
   7 C :   -0.337362    0.304270
   8 C :   -0.562012    0.191043
   9 H :    0.449044   -0.005402
  10 H :    0.664351   -0.003193
  11 H :    0.126695   -0.012981
  12 H :    0.665563   -0.000656
  13 H :    0.398377   -0.002244
  14 H :    0.603032    0.003095
Sum of atomic charges         :    1.0000000

LOEWDIN ATOMIC CHARGES AND SPIN POPULATIONS
-------------------------------------------
   0 C :    0.303615    0.056886
   1 C :    0.283506    0.148183
   2 C :    0.259423    0.030207
   3 C :    0.302394    0.105996
   4 C :   -0.102868    0.081119
   5 C :   -0.318894    0.054371
   6 O :    0.669771    0.060959
   7 C :    0.105904    0.210311
   8 C :    0.341266    0.144970
   9 H :   -0.129770    0.019796
  10 H :   -0.129011    0.036744
  11 H :   -0.138963    0.021539
  12 H :   -0.160634   -0.007616
  13 H :   -0.144268    0.033986
  14 H :   -0.141469    0.002549

  Mayer bond orders larger than 0.100000
B(  0-C ,  1-C ) :   1.1443 B(  0-C ,  2-C ) :   0.3589 B(  0-C ,  4-C ) :   0.1396
B(  0-C ,  5-C ) :   1.2617 B(  0-C ,  6-O ) :   0.1202 B(  0-C , 14-H ) :   0.1983
B(  1-C ,  2-C ) :   1.1117 B(  1-C ,  3-C ) :  -0.3430 B(  1-C ,  5-C ) :  -0.6291
B(  1-C ,  7-C ) :   0.1066 B(  1-C ,  8-C ) :   0.1418 B(  1-C , 12-H ) :   0.1530
B(  1-C , 13-H ) :   0.7548 B(  1-C , 14-H ) :   0.1269 B(  2-C ,  3-C ) :   1.1800
B(  2-C ,  5-C ) :   0.1586 B(  2-C ,  8-C ) :   0.1870 B(  2-C , 12-H ) :   0.2441
B(  3-C ,  4-C ) :   0.6860 B(  3-C ,  5-C ) :  -0.6763 B(  3-C ,  8-C ) :   0.1367
B(  3-C ,  9-H ) :   0.1376 B(  3-C , 11-H ) :   1.3816 B(  3-C , 12-H ) :  -0.1266
B(  4-C ,  5-C ) :   1.1645 B(  4-C ,  7-C ) :  -0.3308 B(  4-C ,  8-C ) :   0.6825
B(  4-C , 13-H ) :  -0.1096 B(  5-C ,  6-O ) :   0.4498 B(  5-C ,  8-C ) :   0.2745
B(  5-C , 11-H ) :   0.1719 B(  5-C , 13-H ) :   0.1241 B(  6-O ,  7-C ) :   1.3686
B(  7-C ,  8-C ) :   1.0563 B(  7-C , 10-H ) :   0.4686 B(  8-C ,  9-H ) :   0.7239
B(  8-C , 11-H ) :  -0.1045

Dispersion correction           -0.027321326
FINAL SINGLE POINT ENERGY      -383.407170583459

DIPOLE MOMENT
-------------

Method             : SCF
Type of density    : Electron Density
Multiplicity       :   2
Irrep              :   0
Energy             :  -383.3798492577315074 Eh
Relativity type    :
Basis              : AO
                                X                 Y                 Z
Electronic contribution:     -2.939051757      -1.140099341      -0.007670678
Nuclear contribution   :      2.532789072       1.785655659       0.011519759
                        -----------------------------------------
Total Dipole Moment    :     -0.406262685       0.645556318       0.003849081
                        -----------------------------------------
Magnitude (a.u.)       :      0.762762837
Magnitude (Debye)      :      1.938789052

VIBRATIONAL FREQUENCIES
-----------------------

Scaling factor for frequencies =  1.000000000  (already applied!)

     0:       0.00 cm**-1
     1:       0.00 cm**-1
     2:       0.00 cm**-1
     3:       0.00 cm**-1
     4:       0.00 cm**-1
     5:       0.00 cm**-1
     6:     180.29 cm**-1
     7:     229.39 cm**-1
     8:     387.23 cm**-1
     9:     401.84 cm**-1
    10:     491.28 cm**-1
    11:     517.94 cm**-1
    12:     538.84 cm**-1
    13:     612.94 cm**-1
    14:     721.80 cm**-1
    15:     767.63 cm**-1
    16:     771.22 cm**-1
    17:     812.61 cm**-1
    18:     861.24 cm**-1
    19:     880.67 cm**-1
    20:     887.34 cm**-1
    21:     921.74 cm**-1
    22:     973.48 cm**-1
    23:    1004.96 cm**-1
    24:    1011.47 cm**-1
    25:    1046.05 cm**-1
    26:    1103.17 cm**-1
    27:    1129.61 cm**-1
    28:    1150.14 cm**-1
    29:    1181.11 cm**-1
    30:    1259.72 cm**-1
    31:    1280.80 cm**-1
    32:    1360.94 cm**-1
    33:    1392.16 cm**-1
    34:    1444.25 cm**-1
    35:    1451.56 cm**-1
    36:    1501.90 cm**-1
    37:    1588.15 cm**-1
    38:    1661.32 cm**-1
    39:    3201.09 cm**-1
    40:    3209.26 cm**-1
    41:    3218.60 cm**-1
    42:    3223.64 cm**-1
    43:    3256.12 cm**-1
    44:    3267.68 cm**-1

IR SPECTRUM
-----------

 Mode   freq       eps      Int      T**2         TX        TY        TZ
       cm**-1   L/(mol*cm) km/mol    a.u.
----------------------------------------------------------------------------
  6:    180.29   0.003596   18.17  0.006224  (-0.000093 -0.000023  0.078889)
  7:    229.39   0.000027    0.14  0.000037  ( 0.000654  0.000236 -0.006063)
  8:    387.23   0.003078   15.55  0.002480  ( 0.000669 -0.000088 -0.049799)
  9:    401.84   0.003821   19.31  0.002967  ( 0.045082  0.030576  0.000133)
 10:    491.28   0.001370    6.92  0.000870  (-0.000372  0.000412 -0.029497)
 11:    517.94   0.000765    3.87  0.000461  ( 0.012313  0.017583  0.000162)
 12:    538.84   0.000069    0.35  0.000040  (-0.000591 -0.000003 -0.006294)
 13:    612.94   0.001193    6.03  0.000607  ( 0.024415 -0.003316 -0.000244)
 14:    721.80   0.008659   43.76  0.003744  ( 0.000038 -0.000114  0.061185)
 15:    767.63   0.000618    3.12  0.000251  ( 0.007971 -0.013638 -0.001337)
 16:    771.22   0.001740    8.79  0.000704  ( 0.000629 -0.000902  0.026511)
 17:    812.61   0.020262  102.40  0.007781  (-0.000339  0.000337  0.088210)
 18:    861.24   0.004682   23.66  0.001696  ( 0.009227  0.040139 -0.000455)
 19:    880.67   0.000411    2.08  0.000146  ( 0.000148  0.000130 -0.012073)
 20:    887.34   0.006061   30.63  0.002132  ( 0.045682  0.006686  0.000186)
 21:    921.74   0.000245    1.24  0.000083  ( 0.000176  0.000243  0.009100)
 22:    973.48   0.001422    7.18  0.000456  (-0.000156  0.000142  0.021346)
 23:   1004.96   0.002034   10.28  0.000632  ( 0.020495 -0.014546 -0.000284)
 24:   1011.47   0.000226    1.14  0.000070  (-0.000068  0.000373  0.008346)
 25:   1046.05   0.000520    2.63  0.000155  ( 0.006802  0.010436  0.000064)
 26:   1103.17   0.002717   13.73  0.000769  (-0.020037  0.019159 -0.000107)
 27:   1129.61   0.013809   69.79  0.003815  (-0.061385  0.006832  0.000015)
 28:   1150.14   0.005512   27.86  0.001496  (-0.028571 -0.026062  0.000033)
 29:   1181.11   0.017240   87.12  0.004555  ( 0.041066  0.053559  0.000003)
 30:   1259.72   0.024785  125.25  0.006140  ( 0.077802 -0.009315 -0.000080)
 31:   1280.80   0.000202    1.02  0.000049  (-0.001017  0.006946  0.000063)
 32:   1360.94   0.017608   88.98  0.004037  ( 0.028032 -0.057023 -0.000057)
 33:   1392.16   0.020841  105.32  0.004672  (-0.053819 -0.042134  0.000002)
 34:   1444.25   0.063903  322.94  0.013808  ( 0.117213  0.008301  0.000053)
 35:   1451.56   0.003527   17.82  0.000758  ( 0.025862 -0.009455  0.000137)
 36:   1501.90   0.022098  111.68  0.004592  (-0.050335  0.045364 -0.000020)
 37:   1588.15   0.001226    6.20  0.000241  ( 0.014479 -0.005596  0.000014)
 38:   1661.32   0.029077  146.94  0.005462  (-0.065654  0.033932 -0.000081)
 39:   3201.09   0.000271    1.37  0.000026  ( 0.000480 -0.005119 -0.000053)
 40:   3209.26   0.000451    2.28  0.000044  (-0.005699  0.003372  0.000065)
 41:   3218.60   0.000311    1.57  0.000030  ( 0.005264 -0.001556 -0.000013)
 42:   3223.64   0.000432    2.18  0.000042  (-0.003498 -0.005436  0.000061)
 43:   3256.12   0.003558   17.98  0.000341  ( 0.011305  0.014602  0.000012)
 44:   3267.68   0.001467    7.42  0.000140  (-0.010091  0.006186  0.000175)

--------------------------
THERMOCHEMISTRY AT 298.15K
--------------------------

Temperature         ...   298.15 K
Pressure            ...     1.00 atm
Total Mass          ...   118.13 AMU
Quasi RRHO          ...     True
Cut-Off Frequency   ...     1.00 cm^-1

Throughout the following assumptions are being made:
  (1) The electronic state is orbitally nondegenerate
      but the spin degeneracy is treated
  (2) There are no thermally accessible electronically excited states
  (3) Hindered rotations indicated by low frequency modes are not
      treated as such but are treated as vibrations and this may
      cause some error
  (4) All equations used are the standard statistical mechanics
      equations for an ideal gas
  (5) All vibrations are strictly harmonic

freq.     180.29  E(vib)   ...       0.37
freq.     229.39  E(vib)   ...       0.32
freq.     387.23  E(vib)   ...       0.20
freq.     401.84  E(vib)   ...       0.19
freq.     491.28  E(vib)   ...       0.14
freq.     517.94  E(vib)   ...       0.13
freq.     538.84  E(vib)   ...       0.12
freq.     612.94  E(vib)   ...       0.10
freq.     721.80  E(vib)   ...       0.07
freq.     767.63  E(vib)   ...       0.06
freq.     771.22  E(vib)   ...       0.05
freq.     812.61  E(vib)   ...       0.05
freq.     861.24  E(vib)   ...       0.04
freq.     880.67  E(vib)   ...       0.04
freq.     887.34  E(vib)   ...       0.04
freq.     921.74  E(vib)   ...       0.03
freq.     973.48  E(vib)   ...       0.03
freq.    1004.96  E(vib)   ...       0.02
freq.    1011.47  E(vib)   ...       0.02
freq.    1046.05  E(vib)   ...       0.02
freq.    1103.17  E(vib)   ...       0.02
freq.    1129.61  E(vib)   ...       0.01
freq.    1150.14  E(vib)   ...       0.01
freq.    1181.11  E(vib)   ...       0.01
freq.    1259.72  E(vib)   ...       0.01
freq.    1280.80  E(vib)   ...       0.01
freq.    1360.94  E(vib)   ...       0.01
freq.    1392.16  E(vib)   ...       0.00
freq.    1444.25  E(vib)   ...       0.00
freq.    1451.56  E(vib)   ...       0.00
freq.    1501.90  E(vib)   ...       0.00
freq.    1588.15  E(vib)   ...       0.00
freq.    1661.32  E(vib)   ...       0.00
freq.    3201.09  E(vib)   ...       0.00
freq.    3209.26  E(vib)   ...       0.00
freq.    3218.60  E(vib)   ...       0.00
freq.    3223.64  E(vib)   ...       0.00
freq.    3256.12  E(vib)   ...       0.00
freq.    3267.68  E(vib)   ...       0.00

------------
INNER ENERGY
------------

The inner energy is: U= E(el) + E(ZPE) + E(vib) + E(rot) + E(trans)
    E(el)   - is the total energy from the electronic structure calculation
              = E(kin-el) + E(nuc-el) + E(el-el) + E(nuc-nuc)
    E(ZPE)  - the the zero temperature vibrational energy from the frequency calculation
    E(vib)  - the the finite temperature correction to E(ZPE) due to population
              of excited vibrational states
    E(rot)  - is the rotational thermal energy
    E(trans)- is the translational thermal energy

Summary of contributions to the inner energy U:
Electronic energy                ...   -383.40717058 Eh
Zero point energy                ...      0.11596144 Eh      72.77 kcal/mol
Thermal vibrational correction   ...      0.00340420 Eh       2.14 kcal/mol
Thermal rotational correction    ...      0.00141627 Eh       0.89 kcal/mol
Thermal translational correction ...      0.00141627 Eh       0.89 kcal/mol
-----------------------------------------------------------------------
Total thermal energy                   -383.28497241 Eh

Summary of corrections to the electronic energy:
(perhaps to be used in another calculation)
Total thermal correction                  0.00623674 Eh       3.91 kcal/mol
Non-thermal (ZPE) correction              0.11596144 Eh      72.77 kcal/mol
-----------------------------------------------------------------------
Total correction                          0.12219817 Eh      76.68 kcal/mol

--------
ENTHALPY
--------

The enthalpy is H = U + kB*T
                kB is Boltzmann's constant
Total thermal energy              ...   -383.28497241 Eh
Thermal Enthalpy correction       ...      0.00094421 Eh       0.59 kcal/mol
-----------------------------------------------------------------------
Total Enthalpy                    ...   -383.28402820 Eh

Note: Only C1 symmetry has been detected, increase convergence thresholds
      if your molecule has a higher symmetry. Symmetry factor of 1.0 is
      used for the rotational entropy correction.

Note: Rotational entropy computed according to Herzberg
Infrared and Raman Spectra, Chapter V,1, Van Nostrand Reinhold, 1945
Point Group:  C1, Symmetry Number:   1
Rotational constants in cm-1:     0.130198     0.055992     0.039154

Vibrational entropy computed according to the QRRHO of S. Grimme
Chem.Eur.J. 2012 18 9955 using a reference frequency of 100.0 cm-1

-------
ENTROPY
-------

The entropy contributions are T*S = T*(S(el)+S(vib)+S(rot)+S(trans))
     S(el)   - electronic entropy
     S(vib)  - vibrational entropy
     S(rot)  - rotational entropy
     S(trans)- translational entropy
The entropies will be listed as multiplied by the temperature to get
units of energy

Electronic entropy                ...      0.00065446 Eh      0.41 kcal/mol
Vibrational entropy               ...      0.00510383 Eh      3.20 kcal/mol
Rotational entropy                ...      0.01336377 Eh      8.39 kcal/mol
Translational entropy             ...      0.01910727 Eh     11.99 kcal/mol
-----------------------------------------------------------------------
Final entropy term                ...      0.03822933 Eh     23.99 kcal/mol

In case the symmetry of your molecule has not been determined correctly
or in case you have a reason to use a different symmetry number we print
out the resulting rotational entropy values for sn=1,12:

 non-linear molecules -----------------------------------
|  sn= 1 | S(rot)=       0.01336377 Eh      8.39 kcal/mol|
|  sn= 2 | S(rot)=       0.01270932 Eh      7.98 kcal/mol|
|  sn= 3 | S(rot)=       0.01232648 Eh      7.73 kcal/mol|
|  sn= 4 | S(rot)=       0.01205486 Eh      7.56 kcal/mol|
|  sn= 5 | S(rot)=       0.01184417 Eh      7.43 kcal/mol|
|  sn= 6 | S(rot)=       0.01167203 Eh      7.32 kcal/mol|
|  sn= 7 | S(rot)=       0.01152648 Eh      7.23 kcal/mol|
|  sn= 8 | S(rot)=       0.01140040 Eh      7.15 kcal/mol|
|  sn= 9 | S(rot)=       0.01128919 Eh      7.08 kcal/mol|
|  sn=10 | S(rot)=       0.01118972 Eh      7.02 kcal/mol|
|  sn=11 | S(rot)=       0.01109973 Eh      6.97 kcal/mol|
|  sn=12 | S(rot)=       0.01101757 Eh      6.91 kcal/mol|
 linear molecules ---------------------------------------
|  Dinfh | S(rot)=       0.00838519 Eh      5.26 kcal/mol|
|  Cinfv | S(rot)=       0.00903965 Eh      5.67 kcal/mol|
 --------------------------------------------------------

-------------------
GIBBS FREE ENERGY

                             ****ORCA TERMINATED NORMALLY****
TOTAL RUN TIME: 0 days 0 hours 37 minutes 20 seconds 972 msec
