                         Program Version 6.0.0  -   RELEASE  -
|  1> !B3LYP aug-cc-pVTZ d3 TightSCF SlowConv RIJCOSX defgrid2
|  2>
|  3> %pal
|  4> nprocs 4
|  5> end
|  6>
|  7> %scf
|  8> MaxIter 1500
|  9> end
| 10>
| 11> %maxcore 3000
| 12>
| 13> !CPCM
| 14> %cpcm smd true
| 15> SMDsolvent "MeCN"
| 16> surfacetype gepol_ses
| 17> rsolv 2.19
| 18> end
| 19>
| 20> * xyz 1 2
| 21> C           0.86770061929664     -1.42689432299132      0.00000897101558
| 22> C           2.10468085183811     -0.72689058389273     -0.00000825447661
| 23> C           2.18067581844409      0.67999913600521     -0.00001076122154
| 24> C           1.03283927538202      1.45145343690800      0.00000700381243
| 25> C          -0.22537653673213      0.77678989280940      0.00001343275561
| 26> C          -0.25105693451531     -0.64408759720608      0.00001506224490
| 27> O          -1.55281870061497     -1.07751154880539      0.00002630462179
| 28> C          -2.31401480280601     -0.00668804123383      0.00001929043081
| 29> C          -1.56234358562406      1.18487206630760      0.00001231970991
| 30> H          -1.97074260676972      2.19593761753153      0.00001018835187
| 31> H          -3.39348512015147     -0.17364143845796      0.00002005021122
| 32> H           1.07805269996545      2.54351477894486     -0.00000377489980
| 33> H           3.16218666325774      1.15998906195145     -0.00002790877216
| 34> H           3.03083245792013     -1.30967197800346     -0.00002115939682
| 35> H           0.82193140110952     -2.51820987986727      0.00000983561282
| 36> *
| 37>
| 38>                          ****END OF INPUT****

CARTESIAN COORDINATES (ANGSTROEM)
---------------------------------
  C      0.867701   -1.426894    0.000009
  C      2.104681   -0.726891   -0.000008
  C      2.180676    0.679999   -0.000011
  C      1.032839    1.451453    0.000007
  C     -0.225377    0.776790    0.000013
  C     -0.251057   -0.644088    0.000015
  O     -1.552819   -1.077512    0.000026
  C     -2.314015   -0.006688    0.000019
  C     -1.562344    1.184872    0.000012
  H     -1.970743    2.195938    0.000010
  H     -3.393485   -0.173641    0.000020
  H      1.078053    2.543515   -0.000004
  H      3.162187    1.159989   -0.000028
  H      3.030832   -1.309672   -0.000021
  H      0.821931   -2.518210    0.000010

 Total Charge           Charge          ....    1
 Multiplicity           Mult            ....    2
 Number of Electrons    NEL             ....   61
 Basis Dimension        Dim             ....  552

ORBITAL ENERGIES
----------------
                 SPIN UP ORBITALS
  NO   OCC          E(Eh)            E(eV)
   0   1.0000     -19.255207      -523.9608
   1   1.0000     -10.310567      -280.5648
   2   1.0000     -10.282657      -279.8053
   3   1.0000     -10.241820      -278.6941
   4   1.0000     -10.238613      -278.6068
   5   1.0000     -10.238086      -278.5925
   6   1.0000     -10.232849      -278.4500
   7   1.0000     -10.228029      -278.3188
   8   1.0000     -10.209112      -277.8041
   9   1.0000      -1.185948       -32.2713
  10   1.0000      -0.906782       -24.6748
  11   1.0000      -0.853596       -23.2275
  12   1.0000      -0.802099       -21.8262
  13   1.0000      -0.774858       -21.0850
  14   1.0000      -0.683996       -18.6125
  15   1.0000      -0.646502       -17.5922
  16   1.0000      -0.629336       -17.1251
  17   1.0000      -0.564421       -15.3587
  18   1.0000      -0.542309       -14.7570
  19   1.0000      -0.525385       -14.2964
  20   1.0000      -0.516092       -14.0436
  21   1.0000      -0.478385       -13.0175
  22   1.0000      -0.468008       -12.7351
  23   1.0000      -0.454852       -12.3772
  24   1.0000      -0.430204       -11.7064
  25   1.0000      -0.405632       -11.0378
  26   1.0000      -0.401614       -10.9285
  27   1.0000      -0.382811       -10.4168
  28   1.0000      -0.350951        -9.5499
  29   1.0000      -0.293455        -7.9853
  30   1.0000      -0.274458        -7.4684
  31   0.0000      -0.085057        -2.3145
  32   0.0000      -0.037830        -1.0294
  33   0.0000      -0.011273        -0.3068
  34   0.0000      -0.005628        -0.1531
  35   0.0000       0.005785         0.1574

                 SPIN DOWN ORBITALS
  NO   OCC          E(Eh)            E(eV)
   0   1.0000     -19.254384      -523.9384
   1   1.0000     -10.305597      -280.4296
   2   1.0000     -10.281372      -279.7704
   3   1.0000     -10.239453      -278.6297
   4   1.0000     -10.238158      -278.5944
   5   1.0000     -10.233769      -278.4750
   6   1.0000     -10.229617      -278.3620
   7   1.0000     -10.228023      -278.3186
   8   1.0000     -10.210595      -277.8444
   9   1.0000      -1.182424       -32.1754
  10   1.0000      -0.901860       -24.5409
  11   1.0000      -0.845576       -23.0093
  12   1.0000      -0.798892       -21.7390
  13   1.0000      -0.763157       -20.7666
  14   1.0000      -0.680020       -18.5043
  15   1.0000      -0.641082       -17.4447
  16   1.0000      -0.624920       -17.0049
  17   1.0000      -0.561786       -15.2870
  18   1.0000      -0.538350       -14.6493
  19   1.0000      -0.513864       -13.9830
  20   1.0000      -0.511215       -13.9109
  21   1.0000      -0.476922       -12.9777
  22   1.0000      -0.465233       -12.6596
  23   1.0000      -0.452847       -12.3226
  24   1.0000      -0.427281       -11.6269
  25   1.0000      -0.399903       -10.8819
  26   1.0000      -0.390364       -10.6223
  27   1.0000      -0.381344       -10.3769
  28   1.0000      -0.325699        -8.8627
  29   1.0000      -0.287646        -7.8272
  30   0.0000      -0.200647        -5.4599
  31   0.0000      -0.057715        -1.5705
  32   0.0000      -0.026912        -0.7323
  33   0.0000      -0.005367        -0.1460
  34   0.0000       0.006032         0.1641

MULLIKEN ATOMIC CHARGES AND SPIN POPULATIONS
--------------------------------------------
   0 C :   -0.911967    0.014721
   1 C :   -0.058422    0.281968
   2 C :   -0.523399   -0.098033
   3 C :   -0.537506    0.214035
   4 C :    1.074271    0.029313
   5 C :    0.483596    0.065746
   6 O :   -0.505516    0.014660
   7 C :   -0.330762    0.301250
   8 C :   -0.575439    0.199137
   9 H :    0.453777   -0.005653
  10 H :    0.654156   -0.003896
  11 H :    0.140730   -0.013229
  12 H :    0.644846   -0.000638
  13 H :    0.396720   -0.001717
  14 H :    0.594916    0.002336
Sum of atomic charges         :    1.0000000

LOEWDIN ATOMIC CHARGES AND SPIN POPULATIONS
-------------------------------------------
   0 C :    0.300793    0.057090
   1 C :    0.274395    0.148534
   2 C :    0.250078    0.028771
   3 C :    0.296515    0.109843
   4 C :   -0.103184    0.079475
   5 C :   -0.330116    0.053550
   6 O :    0.666074    0.061428
   7 C :    0.093848    0.209394
   8 C :    0.340040    0.147322
   9 H :   -0.120254    0.019897
  10 H :   -0.116245    0.035075
  11 H :   -0.130919    0.021857
  12 H :   -0.152220   -0.007896
  13 H :   -0.135999    0.033075
  14 H :   -0.132805    0.002584

  Mayer bond orders larger than 0.100000
B(  0-C ,  1-C ) :   1.1486 B(  0-C ,  2-C ) :   0.3560 B(  0-C ,  4-C ) :   0.1438
B(  0-C ,  5-C ) :   1.2572 B(  0-C ,  6-O ) :   0.1236 B(  0-C , 14-H ) :   0.2167
B(  1-C ,  2-C ) :   1.1147 B(  1-C ,  3-C ) :  -0.3399 B(  1-C ,  5-C ) :  -0.6013
B(  1-C ,  8-C ) :   0.1376 B(  1-C , 12-H ) :   0.1505 B(  1-C , 13-H ) :   0.7506
B(  1-C , 14-H ) :   0.1310 B(  2-C ,  3-C ) :   1.1938 B(  2-C ,  5-C ) :   0.1613
B(  2-C ,  8-C ) :   0.1740 B(  2-C , 12-H ) :   0.2757 B(  3-C ,  4-C ) :   0.7103
B(  3-C ,  5-C ) :  -0.6640 B(  3-C ,  8-C ) :   0.1363 B(  3-C ,  9-H ) :   0.1299
B(  3-C , 11-H ) :   1.3387 B(  4-C ,  5-C ) :   1.1545 B(  4-C ,  7-C ) :  -0.3021
B(  4-C ,  8-C ) :   0.7067 B(  5-C ,  6-O ) :   0.4399 B(  5-C ,  8-C ) :   0.2837
B(  5-C , 11-H ) :   0.1606 B(  5-C , 13-H ) :   0.1169 B(  6-O ,  7-C ) :   1.3962
B(  7-C ,  8-C ) :   1.0406 B(  7-C , 10-H ) :   0.4828 B(  8-C ,  9-H ) :   0.7200

Dispersion correction           -0.027209098
FINAL SINGLE POINT ENERGY      -383.405870003536

DIPOLE MOMENT
-------------

Method             : SCF
Type of density    : Electron Density
Multiplicity       :   2
Irrep              :   0
Energy             :  -383.3786609055123336 Eh
Relativity type    :
Basis              : AO
                                X                 Y                 Z
Electronic contribution:     -2.988362529      -1.151896535      -0.000447232
Nuclear contribution   :      2.540715655       1.757441244      -0.000063826
                        -----------------------------------------
Total Dipole Moment    :     -0.447646874       0.605544710      -0.000511058
                        -----------------------------------------
Magnitude (a.u.)       :      0.753042084
Magnitude (Debye)      :      1.914080863

Rotational constants in cm-1:             0.129539             0.055719             0.038960
Rotational constants in MHz :          3883.478039          1670.401185          1168.006371

                             ****ORCA TERMINATED NORMALLY****
TOTAL RUN TIME: 0 days 0 hours 5 minutes 12 seconds 831 msec
