                         Program Version 6.0.0  -   RELEASE  -
|  1> !PBE0 freq def2-SV(p) d3 TightSCF SlowConv RIJCOSX defgrid2
|  2>
|  3> %pal
|  4> nprocs 12
|  5> end
|  6>
|  7> %scf
|  8> MaxIter 1500
|  9> end
| 10>
| 11> %maxcore 5000
| 12>
| 13> !CPCM
| 14> %cpcm smd true
| 15> SMDsolvent "MeCN"
| 16> surfacetype gepol_ses
| 17> rsolv 2.19
| 18> end
| 19>
| 20> * xyz 0 1
| 21> C          -0.33604317596771      0.79280487847326     -0.00098613988752
| 22> C          -1.63281473139357      0.25820656905549     -0.00111089968587
| 23> C          -1.80739684065132     -1.13016321483450     -0.00026619025517
| 24> C          -0.67619109876408     -1.95425373346990      0.00094150318822
| 25> C           0.60786998459555     -1.42654512859750      0.00121956096937
| 26> C           0.79580341198809     -0.02906116835656      0.00008454634563
| 27> C           2.11996025295673      0.60707089767340      0.00049206405491
| 28> C           3.31461254079856     -0.00812632833138     -0.00110647366782
| 29> C           4.62914479454739      0.69379312051013      0.00008613415215
| 30> H           5.23000328210259      0.41217004381730     -0.88577269622398
| 31> H           5.23120615794940      0.40604704555991      0.88316249705386
| 32> H           4.51061427773946      1.79095360471702      0.00386034539482
| 33> H           3.35895082418432     -1.10586309321053     -0.00362336873673
| 34> H           2.10362344722628      1.70560221792701      0.00227554098810
| 35> H           1.46717989714828     -2.10203778119602      0.00287409719124
| 36> H          -0.81397062420938     -3.04015938323378      0.00204642786708
| 37> H          -2.80269132518786     -1.57836607337086     -0.00082330396268
| 38> O          -2.64025484428187      1.15101743282404     -0.00191714142278
| 39> C          -3.96365517324736      0.67820071412001      0.00003379453382
| 40> H          -4.61255083343445      1.56700935762368     -0.00022363897095
| 41> H          -4.18242510489586      0.07657028758754      0.90204375300603
| 42> H          -4.18446357674066      0.07483736312193     -0.90024455515424
| 43> H          -0.22934734246250      1.88165537159034     -0.00179125677749
| 44> *
| 45>
| 46>                          ****END OF INPUT****

CARTESIAN COORDINATES (ANGSTROEM)
---------------------------------
  C     -0.336043    0.792805   -0.000986
  C     -1.632815    0.258207   -0.001111
  C     -1.807397   -1.130163   -0.000266
  C     -0.676191   -1.954254    0.000942
  C      0.607870   -1.426545    0.001220
  C      0.795803   -0.029061    0.000085
  C      2.119960    0.607071    0.000492
  C      3.314613   -0.008126   -0.001106
  C      4.629145    0.693793    0.000086
  H      5.230003    0.412170   -0.885773
  H      5.231206    0.406047    0.883162
  H      4.510614    1.790954    0.003860
  H      3.358951   -1.105863   -0.003623
  H      2.103623    1.705602    0.002276
  H      1.467180   -2.102038    0.002874
  H     -0.813971   -3.040159    0.002046
  H     -2.802691   -1.578366   -0.000823
  O     -2.640255    1.151017   -0.001917
  C     -3.963655    0.678201    0.000034
  H     -4.612551    1.567009   -0.000224
  H     -4.182425    0.076570    0.902044
  H     -4.184464    0.074837   -0.900245
  H     -0.229347    1.881655   -0.001791

 Total Charge           Charge          ....    0
 Multiplicity           Mult            ....    1
 Number of Electrons    NEL             ....   80
 Basis Dimension        Dim             ....  178

ORBITAL ENERGIES
----------------

  NO   OCC          E(Eh)            E(eV)
   0   2.0000     -19.242280      -523.6091
   1   2.0000     -10.297607      -280.2121
   2   2.0000     -10.269484      -279.4469
   3   2.0000     -10.249732      -278.9094
   4   2.0000     -10.237647      -278.5805
   5   2.0000     -10.236797      -278.5574
   6   2.0000     -10.231316      -278.4083
   7   2.0000     -10.231124      -278.4030
   8   2.0000     -10.229973      -278.3717
   9   2.0000     -10.228462      -278.3306
  10   2.0000     -10.219676      -278.0915
  11   2.0000      -1.092593       -29.7310
  12   2.0000      -0.878393       -23.9023
  13   2.0000      -0.816206       -22.2101
  14   2.0000      -0.774250       -21.0684
  15   2.0000      -0.765972       -20.8432
  16   2.0000      -0.706472       -19.2241
  17   2.0000      -0.692734       -18.8502
  18   2.0000      -0.620268       -16.8784
  19   2.0000      -0.611932       -16.6515
  20   2.0000      -0.564076       -15.3493
  21   2.0000      -0.537262       -14.6196
  22   2.0000      -0.503417       -13.6987
  23   2.0000      -0.495876       -13.4935
  24   2.0000      -0.483070       -13.1450
  25   2.0000      -0.473318       -12.8796
  26   2.0000      -0.445505       -12.1228
  27   2.0000      -0.432057       -11.7569
  28   2.0000      -0.421195       -11.4613
  29   2.0000      -0.412345       -11.2205
  30   2.0000      -0.398523       -10.8444
  31   2.0000      -0.397428       -10.8146
  32   2.0000      -0.380114       -10.3434
  33   2.0000      -0.366126        -9.9628
  34   2.0000      -0.354544        -9.6476
  35   2.0000      -0.345727        -9.4077
  36   2.0000      -0.335426        -9.1274
  37   2.0000      -0.304006        -8.2724
  38   2.0000      -0.243352        -6.6219
  39   2.0000      -0.229117        -6.2346
  40   0.0000      -0.030679        -0.8348
  41   0.0000       0.001784         0.0485
  42   0.0000       0.067000         1.8232
  43   0.0000       0.087561         2.3827
  44   0.0000       0.096240         2.6188

MULLIKEN ATOMIC CHARGES
-----------------------
   0 C :   -0.258673
   1 C :    0.289872
   2 C :   -0.261169
   3 C :   -0.104950
   4 C :   -0.187680
   5 C :    0.093460
   6 C :   -0.161301
   7 C :   -0.189574
   8 C :   -0.327712
   9 H :    0.152372
  10 H :    0.152274
  11 H :    0.144641
  12 H :    0.140489
  13 H :    0.112429
  14 H :    0.114078
  15 H :    0.122584
  16 H :    0.123400
  17 O :   -0.336673
  18 C :   -0.178278
  19 H :    0.161303
  20 H :    0.147579
  21 H :    0.147598
  22 H :    0.103932
Sum of atomic charges:   -0.0000000

LOEWDIN ATOMIC CHARGES
----------------------
   0 C :   -0.161056
   1 C :    0.032131
   2 C :   -0.197336
   3 C :   -0.124691
   4 C :   -0.161143
   5 C :   -0.047666
   6 C :   -0.158744
   7 C :   -0.136097
   8 C :   -0.345073
   9 H :    0.139646
  10 H :    0.139600
  11 H :    0.131839
  12 H :    0.133864
  13 H :    0.134951
  14 H :    0.137885
  15 H :    0.142194
  16 H :    0.147728
  17 O :   -0.117875
  18 C :   -0.205893
  19 H :    0.131498
  20 H :    0.120675
  21 H :    0.120677
  22 H :    0.142889

  Mayer bond orders larger than 0.100000
B(  0-C ,  1-C ) :   1.3191 B(  0-C ,  5-C ) :   1.3548 B(  0-C , 22-H ) :   0.9679
B(  1-C ,  2-C ) :   1.3135 B(  1-C , 17-O ) :   1.1228 B(  2-C ,  3-C ) :   1.3378
B(  2-C , 16-H ) :   0.9623 B(  3-C ,  4-C ) :   1.4239 B(  3-C , 15-H ) :   0.9592
B(  4-C ,  5-C ) :   1.3233 B(  4-C , 14-H ) :   0.9548 B(  5-C ,  6-C ) :   1.0822
B(  6-C ,  7-C ) :   1.8781 B(  6-C , 13-H ) :   0.9369 B(  7-C ,  8-C ) :   1.0863
B(  7-C , 12-H ) :   0.9124 B(  8-C ,  9-H ) :   0.9323 B(  8-C , 10-H ) :   0.9324
B(  8-C , 11-H ) :   0.9509 B( 17-O , 18-C ) :   0.9400 B( 18-C , 19-H ) :   0.9534
B( 18-C , 20-H ) :   0.9406 B( 18-C , 21-H ) :   0.9406

Dispersion correction           -0.019910259
FINAL SINGLE POINT ENERGY      -462.613299501795

DIPOLE MOMENT
-------------

Method             : SCF
Type of density    : Electron Density
Multiplicity       :   1
Irrep              :   0
Energy             :  -462.5933892429749221 Eh
Relativity type    :
Basis              : AO
                                X                 Y                 Z
Electronic contribution:     -5.099700852      -0.433489022      -0.005226882
Nuclear contribution   :      4.759436814       0.079387014       0.006123684
                        -----------------------------------------
Total Dipole Moment    :     -0.340264038      -0.354102008       0.000896801
                        -----------------------------------------
Magnitude (a.u.)       :      0.491089251
Magnitude (Debye)      :      1.248249675

VIBRATIONAL FREQUENCIES
-----------------------

Scaling factor for frequencies =  1.000000000  (already applied!)

     0:       0.00 cm**-1
     1:       0.00 cm**-1
     2:       0.00 cm**-1
     3:       0.00 cm**-1
     4:       0.00 cm**-1
     5:       0.00 cm**-1
     6:      27.40 cm**-1
     7:      84.24 cm**-1
     8:     124.70 cm**-1
     9:     131.74 cm**-1
    10:     196.35 cm**-1
    11:     206.04 cm**-1
    12:     256.99 cm**-1
    13:     272.15 cm**-1
    14:     301.06 cm**-1
    15:     335.32 cm**-1
    16:     365.51 cm**-1
    17:     470.87 cm**-1
    18:     482.09 cm**-1
    19:     584.26 cm**-1
    20:     622.74 cm**-1
    21:     639.15 cm**-1
    22:     709.32 cm**-1
    23:     777.89 cm**-1
    24:     792.87 cm**-1
    25:     832.14 cm**-1
    26:     897.40 cm**-1
    27:     912.29 cm**-1
    28:     913.39 cm**-1
    29:     982.79 cm**-1
    30:     999.29 cm**-1
    31:    1006.42 cm**-1
    32:    1010.18 cm**-1
    33:    1062.12 cm**-1
    34:    1094.74 cm**-1
    35:    1120.53 cm**-1
    36:    1139.70 cm**-1
    37:    1171.62 cm**-1
    38:    1177.81 cm**-1
    39:    1202.51 cm**-1
    40:    1220.95 cm**-1
    41:    1308.20 cm**-1
    42:    1314.77 cm**-1
    43:    1330.85 cm**-1
    44:    1346.79 cm**-1
    45:    1393.85 cm**-1
    46:    1414.26 cm**-1
    47:    1436.47 cm**-1
    48:    1445.49 cm**-1
    49:    1460.31 cm**-1
    50:    1466.40 cm**-1
    51:    1474.03 cm**-1
    52:    1501.27 cm**-1
    53:    1546.95 cm**-1
    54:    1660.18 cm**-1
    55:    1691.84 cm**-1
    56:    1753.98 cm**-1
    57:    3019.32 cm**-1
    58:    3023.34 cm**-1
    59:    3093.35 cm**-1
    60:    3108.09 cm**-1
    61:    3129.92 cm**-1
    62:    3149.70 cm**-1
    63:    3162.17 cm**-1
    64:    3168.30 cm**-1
    65:    3199.49 cm**-1
    66:    3204.01 cm**-1
    67:    3217.78 cm**-1
    68:    3235.59 cm**-1

IR SPECTRUM
-----------

 Mode   freq       eps      Int      T**2         TX        TY        TZ
       cm**-1   L/(mol*cm) km/mol    a.u.
----------------------------------------------------------------------------
  6:     27.40   0.000353    1.78  0.004015  ( 0.000395 -0.000051  0.063364)
  7:     84.24   0.001278    6.46  0.004735  (-0.000265 -0.000095 -0.068809)
  8:    124.70   0.000437    2.21  0.001095  (-0.021934  0.024768  0.000215)
  9:    131.74   0.000080    0.41  0.000190  (-0.000655  0.000519 -0.013766)
 10:    196.35   0.000372    1.88  0.000591  ( 0.000032 -0.000215  0.024318)
 11:    206.04   0.000052    0.26  0.000078  (-0.000212  0.000047 -0.008839)
 12:    256.99   0.000444    2.24  0.000539  ( 0.002056  0.023126  0.000422)
 13:    272.15   0.000253    1.28  0.000291  ( 0.000087  0.000389 -0.017042)
 14:    301.06   0.000018    0.09  0.000019  (-0.000086  0.000094  0.004353)
 15:    335.32   0.000077    0.39  0.000071  ( 0.007953  0.002864 -0.000020)
 16:    365.51   0.000337    1.70  0.000288  ( 0.016318 -0.004647  0.000079)
 17:    470.87   0.000651    3.29  0.000432  (-0.000007 -0.000016  0.020776)
 18:    482.09   0.000385    1.95  0.000249  (-0.013859 -0.007556  0.000213)
 19:    584.26   0.002579   13.03  0.001378  ( 0.022813 -0.029278 -0.000098)
 20:    622.74   0.000061    0.31  0.000031  ( 0.000181  0.000106  0.005530)
 21:    639.15   0.000359    1.82  0.000175  (-0.007648 -0.010811  0.000005)
 22:    709.32   0.006344   32.06  0.002791  ( 0.000158  0.000108  0.052828)
 23:    777.89   0.001653    8.35  0.000663  (-0.023095  0.011387 -0.000380)
 24:    792.87   0.014335   72.44  0.005642  ( 0.000086  0.000214  0.075114)
 25:    832.14   0.000113    0.57  0.000042  (-0.000184  0.000022  0.006507)
 26:    897.40   0.001095    5.53  0.000381  ( 0.000462  0.000198  0.019505)
 27:    912.29   0.010634   53.74  0.003637  ( 0.051939 -0.030616 -0.001575)
 28:    913.39   0.004712   23.81  0.001610  (-0.002105  0.001398 -0.040043)
 29:    982.79   0.005918   29.91  0.001879  (-0.043241 -0.003036  0.000326)
 30:    999.29   0.004185   21.15  0.001307  (-0.000309 -0.000299  0.036147)
 31:   1006.42   0.008752   44.23  0.002714  ( 0.000384 -0.000175  0.052091)
 32:   1010.18   0.000302    1.53  0.000093  ( 0.003895 -0.008841 -0.000218)
 33:   1062.12   0.000008    0.04  0.000002  ( 0.000206 -0.000134  0.001494)
 34:   1094.74   0.022231  112.35  0.006337  ( 0.078269  0.014533 -0.000042)
 35:   1120.53   0.003102   15.67  0.000864  ( 0.009029  0.027969  0.000081)
 36:   1139.70   0.000045    0.23  0.000012  ( 0.003104 -0.001629  0.000086)
 37:   1171.62   0.005855   29.59  0.001560  (-0.038493  0.008823 -0.000184)
 38:   1177.81   0.000226    1.14  0.000060  (-0.001090  0.000261  0.007659)
 39:   1202.51   0.005456   27.57  0.001416  ( 0.037372 -0.004367 -0.000092)
 40:   1220.95   0.004092   20.68  0.001046  ( 0.027983 -0.016216  0.000004)
 41:   1308.20   0.015180   76.71  0.003621  ( 0.056932 -0.019490 -0.000072)
 42:   1314.77   0.001188    6.00  0.000282  (-0.012191  0.011551  0.000046)
 43:   1330.85   0.004425   22.36  0.001038  ( 0.030451 -0.010510 -0.000014)
 44:   1346.79   0.049761  251.47  0.011530  (-0.098031  0.043819 -0.000020)
 45:   1393.85   0.000714    3.61  0.000160  (-0.011443  0.005374 -0.000240)
 46:   1414.26   0.009254   46.76  0.002042  (-0.044994  0.004171  0.000047)
 47:   1436.47   0.003488   17.62  0.000758  ( 0.001352 -0.001618  0.027445)
 48:   1445.49   0.008844   44.69  0.001909  (-0.032914  0.028694  0.001631)
 49:   1460.31   0.002877   14.54  0.000615  (-0.001230  0.000708  0.024755)
 50:   1466.40   0.014323   72.38  0.003048  (-0.047150  0.028685 -0.001443)
 51:   1474.03   0.004381   22.14  0.000927  (-0.024370  0.018252  0.000670)
 52:   1501.27   0.003335   16.86  0.000693  ( 0.025202 -0.007624 -0.000130)
 53:   1546.95   0.029478  148.97  0.005947  (-0.071895  0.027885  0.000006)
 54:   1660.18   0.026604  134.45  0.005001  ( 0.041513 -0.057249  0.000019)
 55:   1691.84   0.039521  199.72  0.007290  (-0.084872  0.009305 -0.000006)
 56:   1753.98   0.006255   31.61  0.001113  (-0.033337 -0.001254 -0.000008)
 57:   3019.32   0.007954   40.19  0.000822  ( 0.027963  0.006333  0.000059)
 58:   3023.34   0.014741   74.49  0.001522  (-0.038630 -0.005405  0.000041)
 59:   3093.35   0.002468   12.47  0.000249  (-0.000077  0.000042 -0.015780)
 60:   3108.09   0.008042   40.64  0.000807  (-0.000210 -0.000140 -0.028415)
 61:   3129.92   0.002591   13.09  0.000258  (-0.002473  0.015880  0.000062)
 62:   3149.70   0.003920   19.81  0.000388  ( 0.009851  0.017069  0.000037)
 63:   3162.17   0.006382   32.25  0.000630  (-0.002590 -0.024962 -0.000025)
 64:   3168.30   0.004075   20.59  0.000401  (-0.011263  0.016567  0.000013)
 65:   3199.49   0.002046   10.34  0.000200  ( 0.005309  0.013092 -0.000000)
 66:   3204.01   0.001124    5.68  0.000109  ( 0.003120 -0.009985 -0.000013)
 67:   3217.78   0.002368   11.97  0.000230  ( 0.006937 -0.013473 -0.000015)
 68:   3235.59   0.000399    2.02  0.000039  ( 0.005969  0.001702 -0.000025)

--------------------------
THERMOCHEMISTRY AT 298.15K
--------------------------

Temperature         ...   298.15 K
Pressure            ...     1.00 atm
Total Mass          ...   148.21 AMU
Quasi RRHO          ...     True
Cut-Off Frequency   ...     1.00 cm^-1

Throughout the following assumptions are being made:
  (1) The electronic state is orbitally nondegenerate
  (2) There are no thermally accessible electronically excited states
  (3) Hindered rotations indicated by low frequency modes are not
      treated as such but are treated as vibrations and this may
      cause some error
  (4) All equations used are the standard statistical mechanics
      equations for an ideal gas
  (5) All vibrations are strictly harmonic

freq.      27.40  E(vib)   ...       0.55
freq.      84.24  E(vib)   ...       0.48
freq.     124.70  E(vib)   ...       0.43
freq.     131.74  E(vib)   ...       0.42
freq.     196.35  E(vib)   ...       0.36
freq.     206.04  E(vib)   ...       0.35
freq.     256.99  E(vib)   ...       0.30
freq.     272.15  E(vib)   ...       0.29
freq.     301.06  E(vib)   ...       0.26
freq.     335.32  E(vib)   ...       0.24
freq.     365.51  E(vib)   ...       0.22
freq.     470.87  E(vib)   ...       0.15
freq.     482.09  E(vib)   ...       0.15
freq.     584.26  E(vib)   ...       0.11
freq.     622.74  E(vib)   ...       0.09
freq.     639.15  E(vib)   ...       0.09
freq.     709.32  E(vib)   ...       0.07
freq.     777.89  E(vib)   ...       0.05
freq.     792.87  E(vib)   ...       0.05
freq.     832.14  E(vib)   ...       0.04
freq.     897.40  E(vib)   ...       0.03
freq.     912.29  E(vib)   ...       0.03
freq.     913.39  E(vib)   ...       0.03
freq.     982.79  E(vib)   ...       0.02
freq.     999.29  E(vib)   ...       0.02
freq.    1006.42  E(vib)   ...       0.02
freq.    1010.18  E(vib)   ...       0.02
freq.    1062.12  E(vib)   ...       0.02
freq.    1094.74  E(vib)   ...       0.02
freq.    1120.53  E(vib)   ...       0.01
freq.    1139.70  E(vib)   ...       0.01
freq.    1171.62  E(vib)   ...       0.01
freq.    1177.81  E(vib)   ...       0.01
freq.    1202.51  E(vib)   ...       0.01
freq.    1220.95  E(vib)   ...       0.01
freq.    1308.20  E(vib)   ...       0.01
freq.    1314.77  E(vib)   ...       0.01
freq.    1330.85  E(vib)   ...       0.01
freq.    1346.79  E(vib)   ...       0.01
freq.    1393.85  E(vib)   ...       0.00
freq.    1414.26  E(vib)   ...       0.00
freq.    1436.47  E(vib)   ...       0.00
freq.    1445.49  E(vib)   ...       0.00
freq.    1460.31  E(vib)   ...       0.00
freq.    1466.40  E(vib)   ...       0.00
freq.    1474.03  E(vib)   ...       0.00
freq.    1501.27  E(vib)   ...       0.00
freq.    1546.95  E(vib)   ...       0.00
freq.    1660.18  E(vib)   ...       0.00
freq.    1691.84  E(vib)   ...       0.00
freq.    1753.98  E(vib)   ...       0.00
freq.    3019.32  E(vib)   ...       0.00
freq.    3023.34  E(vib)   ...       0.00
freq.    3093.35  E(vib)   ...       0.00
freq.    3108.09  E(vib)   ...       0.00
freq.    3129.92  E(vib)   ...       0.00
freq.    3149.70  E(vib)   ...       0.00
freq.    3162.17  E(vib)   ...       0.00
freq.    3168.30  E(vib)   ...       0.00
freq.    3199.49  E(vib)   ...       0.00
freq.    3204.01  E(vib)   ...       0.00
freq.    3217.78  E(vib)   ...       0.00
freq.    3235.59  E(vib)   ...       0.00

------------
INNER ENERGY
------------

The inner energy is: U= E(el) + E(ZPE) + E(vib) + E(rot) + E(trans)
    E(el)   - is the total energy from the electronic structure calculation
              = E(kin-el) + E(nuc-el) + E(el-el) + E(nuc-nuc)
    E(ZPE)  - the the zero temperature vibrational energy from the frequency calculation
    E(vib)  - the the finite temperature correction to E(ZPE) due to population
              of excited vibrational states
    E(rot)  - is the rotational thermal energy
    E(trans)- is the translational thermal energy

Summary of contributions to the inner energy U:
Electronic energy                ...   -462.61329950 Eh
Zero point energy                ...      0.19451278 Eh     122.06 kcal/mol
Thermal vibrational correction   ...      0.00806216 Eh       5.06 kcal/mol
Thermal rotational correction    ...      0.00141627 Eh       0.89 kcal/mol
Thermal translational correction ...      0.00141627 Eh       0.89 kcal/mol
-----------------------------------------------------------------------
Total thermal energy                   -462.40789201 Eh

Summary of corrections to the electronic energy:
(perhaps to be used in another calculation)
Total thermal correction                  0.01089471 Eh       6.84 kcal/mol
Non-thermal (ZPE) correction              0.19451278 Eh     122.06 kcal/mol
-----------------------------------------------------------------------
Total correction                          0.20540749 Eh     128.89 kcal/mol

--------
ENTHALPY
--------

The enthalpy is H = U + kB*T
                kB is Boltzmann's constant
Total thermal energy              ...   -462.40789201 Eh
Thermal Enthalpy correction       ...      0.00094421 Eh       0.59 kcal/mol
-----------------------------------------------------------------------
Total Enthalpy                    ...   -462.40694780 Eh

Note: Only C1 symmetry has been detected, increase convergence thresholds
      if your molecule has a higher symmetry. Symmetry factor of 1.0 is
      used for the rotational entropy correction.

Note: Rotational entropy computed according to Herzberg
Infrared and Raman Spectra, Chapter V,1, Van Nostrand Reinhold, 1945
Point Group:  C1, Symmetry Number:   1
Rotational constants in cm-1:     0.102649     0.016926     0.014611

Vibrational entropy computed according to the QRRHO of S. Grimme
Chem.Eur.J. 2012 18 9955 using a reference frequency of 100.0 cm-1

-------
ENTROPY
-------

The entropy contributions are T*S = T*(S(el)+S(vib)+S(rot)+S(trans))
     S(el)   - electronic entropy
     S(vib)  - vibrational entropy
     S(rot)  - rotational entropy
     S(trans)- translational entropy
The entropies will be listed as multiplied by the temperature to get
units of energy

Electronic entropy                ...      0.00000000 Eh      0.00 kcal/mol
Vibrational entropy               ...      0.01403456 Eh      8.81 kcal/mol
Rotational entropy                ...      0.01450615 Eh      9.10 kcal/mol
Translational entropy             ...      0.01942844 Eh     12.19 kcal/mol
-----------------------------------------------------------------------
Final entropy term                ...      0.04796914 Eh     30.10 kcal/mol

In case the symmetry of your molecule has not been determined correctly
or in case you have a reason to use a different symmetry number we print

                             ****ORCA TERMINATED NORMALLY****
TOTAL RUN TIME: 0 days 0 hours 7 minutes 25 seconds 385 msec
