                         Program Version 6.0.0  -   RELEASE  -
|  1> !B3LYP aug-cc-pVTZ d3 TightSCF SlowConv RIJCOSX defgrid2
|  2>
|  3> %pal
|  4> nprocs 4
|  5> end
|  6>
|  7> %scf
|  8> MaxIter 1500
|  9> end
| 10>
| 11> %maxcore 3000
| 12>
| 13> !CPCM
| 14> %cpcm smd true
| 15> SMDsolvent "MeCN"
| 16> surfacetype gepol_ses
| 17> rsolv 2.19
| 18> end
| 19>
| 20> * xyz 0 1
| 21> C          -1.05292788857862     -0.90195039312492     -0.00079244620406
| 22> C           0.25383306266426     -1.38568004993578     -0.00080152214741
| 23> C           0.54028267273191     -2.86138571234637      0.00203288995712
| 24> H          -0.38883857252285     -3.45325509542062     -0.03604059678385
| 25> H           1.09291811063176     -3.16010644297053      0.91112317693211
| 26> H           1.16170282070714     -3.15090864321875     -0.86421399390079
| 27> C           1.30789207458922     -0.46067464080260     -0.00180567347016
| 28> C           1.07324062808844      0.91294695875315     -0.00214657152903
| 29> C           2.20817617786651      1.89865124490654      0.00209849597546
| 30> H           3.18449974454796      1.39049576009947     -0.05807100437114
| 31> H           2.13663406413115      2.59705801641470     -0.85077030664783
| 32> H           2.20331535520643      2.51020555090965      0.92262417706601
| 33> C          -0.25483018407266      1.36349671392215     -0.00225647131416
| 34> C          -1.32705255805093      0.47346516287692     -0.00103317270303
| 35> C          -2.74855528335392      0.96238121268857      0.00245367553351
| 36> H          -3.31064008145775      0.56663508720282     -0.86228812948984
| 37> H          -2.79782100162226      2.06283177128710     -0.03746981852679
| 38> H          -3.28188878628492      0.63396678514828      0.91282151769573
| 39> H          -0.45362964993404      2.44124989130836     -0.00465260761200
| 40> H           2.34086357869234     -0.82683387520777     -0.00378196652349
| 41> H          -1.88684908397918     -1.61312760249038     -0.00182455193637
| 42> *
| 43>
| 44>                          ****END OF INPUT****

CARTESIAN COORDINATES (ANGSTROEM)
---------------------------------
  C     -1.052928   -0.901950   -0.000792
  C      0.253833   -1.385680   -0.000802
  C      0.540283   -2.861386    0.002033
  H     -0.388839   -3.453255   -0.036041
  H      1.092918   -3.160106    0.911123
  H      1.161703   -3.150909   -0.864214
  C      1.307892   -0.460675   -0.001806
  C      1.073241    0.912947   -0.002147
  C      2.208176    1.898651    0.002098
  H      3.184500    1.390496   -0.058071
  H      2.136634    2.597058   -0.850770
  H      2.203315    2.510206    0.922624
  C     -0.254830    1.363497   -0.002256
  C     -1.327053    0.473465   -0.001033
  C     -2.748555    0.962381    0.002454
  H     -3.310640    0.566635   -0.862288
  H     -2.797821    2.062832   -0.037470
  H     -3.281889    0.633967    0.912822
  H     -0.453630    2.441250   -0.004653
  H      2.340864   -0.826834   -0.003782
  H     -1.886849   -1.613128   -0.001825

 Total Charge           Charge          ....    0
 Multiplicity           Mult            ....    1
 Number of Electrons    NEL             ....   66
 Basis Dimension        Dim             ....  690

ORBITAL ENERGIES
----------------

  NO   OCC          E(Eh)            E(eV)
   0   2.0000     -10.178999      -276.9847
   1   2.0000     -10.178976      -276.9840
   2   2.0000     -10.178970      -276.9839
   3   2.0000     -10.161787      -276.5163
   4   2.0000     -10.161774      -276.5159
   5   2.0000     -10.161749      -276.5152
   6   2.0000     -10.160919      -276.4927
   7   2.0000     -10.160918      -276.4926
   8   2.0000     -10.160910      -276.4924
   9   2.0000      -0.856600       -23.3093
  10   2.0000      -0.774589       -21.0776
  11   2.0000      -0.774580       -21.0774
  12   2.0000      -0.690916       -18.8008
  13   2.0000      -0.670826       -18.2541
  14   2.0000      -0.670771       -18.2526
  15   2.0000      -0.565242       -15.3810
  16   2.0000      -0.565232       -15.3807
  17   2.0000      -0.487901       -13.2765
  18   2.0000      -0.471923       -12.8417
  19   2.0000      -0.423957       -11.5365
  20   2.0000      -0.421022       -11.4566
  21   2.0000      -0.403191       -10.9714
  22   2.0000      -0.403174       -10.9709
  23   2.0000      -0.396239       -10.7822
  24   2.0000      -0.396197       -10.7811
  25   2.0000      -0.383489       -10.4353
  26   2.0000      -0.383448       -10.4341
  27   2.0000      -0.354354        -9.6425
  28   2.0000      -0.331088        -9.0094
  29   2.0000      -0.328307        -8.9337
  30   2.0000      -0.328289        -8.9332
  31   2.0000      -0.236618        -6.4387
  32   2.0000      -0.236576        -6.4376
  33   0.0000      -0.008497        -0.2312
  34   0.0000      -0.008440        -0.2297
  35   0.0000      -0.003918        -0.1066
  36   0.0000       0.009668         0.2631
  37   0.0000       0.009679         0.2634

MULLIKEN ATOMIC CHARGES
-----------------------
   0 C :   -1.054321
   1 C :    1.279223
   2 C :   -0.761878
   3 H :    0.203258
   4 H :    0.211827
   5 H :    0.200724
   6 C :   -1.098550
   7 C :    1.279988
   8 C :   -0.770313
   9 H :    0.204329
  10 H :    0.200747
  11 H :    0.213029
  12 C :   -1.094997
  13 C :    1.278738
  14 C :   -0.758982
  15 H :    0.200480
  16 H :    0.201412
  17 H :    0.209303
  18 H :   -0.032497
  19 H :   -0.064964
  20 H :   -0.046555
Sum of atomic charges:    0.0000000

LOEWDIN ATOMIC CHARGES
----------------------
   0 C :    0.215859
   1 C :   -0.142042
   2 C :    0.563844
   3 H :   -0.168658
   4 H :   -0.153487
   5 H :   -0.154861
   6 C :    0.215825
   7 C :   -0.142007
   8 C :    0.563750
   9 H :   -0.168654
  10 H :   -0.155150
  11 H :   -0.153162
  12 C :    0.215879
  13 C :   -0.142042
  14 C :    0.563819
  15 H :   -0.154903
  16 H :   -0.168546
  17 H :   -0.153506
  18 H :   -0.160664
  19 H :   -0.160672
  20 H :   -0.160623

  Mayer bond orders larger than 0.100000
B(  0-C ,  1-C ) :   0.5273 B(  0-C ,  7-C ) :  -0.2009 B(  0-C , 13-C ) :   0.2908
B(  0-C , 14-C ) :   0.2498 B(  0-C , 18-H ) :   0.1338 B(  0-C , 20-H ) :   1.5226
B(  1-C ,  2-C ) :   0.2070 B(  1-C ,  5-H ) :  -0.1013 B(  1-C ,  6-C ) :   0.2442
B(  1-C ,  7-C ) :   0.5119 B(  1-C , 12-C ) :  -0.2312 B(  1-C , 13-C ) :   0.4908
B(  1-C , 18-H ) :  -0.1064 B(  1-C , 19-H ) :  -0.1995 B(  1-C , 20-H ) :  -0.1583
B(  2-C ,  3-H ) :   0.9899 B(  2-C ,  4-H ) :   1.0268 B(  2-C ,  5-H ) :   1.0401
B(  2-C ,  6-C ) :   0.2513 B(  6-C ,  7-C ) :   0.5406 B(  6-C , 13-C ) :  -0.2173
B(  6-C , 19-H ) :   1.5762 B(  6-C , 20-H ) :   0.1292 B(  7-C ,  8-C ) :   0.1777
B(  7-C , 10-H ) :  -0.1054 B(  7-C , 11-H ) :  -0.1042 B(  7-C , 12-C ) :   0.2572
B(  7-C , 13-C ) :   0.4897 B(  7-C , 18-H ) :  -0.1754 B(  7-C , 19-H ) :  -0.1739
B(  8-C ,  9-H ) :   0.9911 B(  8-C , 10-H ) :   1.0422 B(  8-C , 11-H ) :   1.0286
B(  8-C , 12-C ) :   0.2441 B( 12-C , 13-C ) :   0.4915 B( 12-C , 18-H ) :   1.5214
B( 12-C , 19-H ) :   0.1423 B( 13-C , 14-C ) :   0.1948 B( 13-C , 15-H ) :  -0.1018
B( 13-C , 17-H ) :  -0.1009 B( 13-C , 18-H ) :  -0.1601 B( 13-C , 19-H ) :  -0.1151
B( 13-C , 20-H ) :  -0.1717 B( 14-C , 15-H ) :   1.0403 B( 14-C , 16-H ) :   0.9929
B( 14-C , 17-H ) :   1.0305

Dispersion correction           -0.034910906
FINAL SINGLE POINT ENERGY      -350.130912304649

DIPOLE MOMENT
-------------

Method             : SCF
Type of density    : Electron Density
Multiplicity       :   1
Irrep              :   0
Energy             :  -350.0960013988991477 Eh
Relativity type    :
Basis              : AO
                                X                 Y                 Z
Electronic contribution:     -0.000747501       0.002362104      -0.011623871
Nuclear contribution   :      0.000158820      -0.002916147       0.025698413
                        -----------------------------------------
Total Dipole Moment    :     -0.000588681      -0.000554042       0.014074542
                        -----------------------------------------
Magnitude (a.u.)       :      0.014097739
Magnitude (Debye)      :      0.035833604

Rotational constants in cm-1:             0.058235             0.058222             0.029602
Rotational constants in MHz :          1745.843649          1745.444193           887.453553

                             ****ORCA TERMINATED NORMALLY****
TOTAL RUN TIME: 0 days 0 hours 6 minutes 10 seconds 658 msec
