                         Program Version 6.0.0  -   RELEASE  -
|  1> !r2SCANh opt aug-cc-pVTZ d3 TightSCF SlowConv RIJCOSX defgrid2
|  2>
|  3> %pal
|  4> nprocs 8
|  5> end
|  6>
|  7> %scf
|  8> MaxIter 1500
|  9> end
| 10>
| 11> %maxcore 3500
| 12>
| 13> !CPCM
| 14> %cpcm smd true
| 15> SMDsolvent "MeCN"
| 16> surfacetype gepol_ses
| 17> rsolv 2.19
| 18> end
| 19>
| 20> * xyz 0 1
| 21>   C           0.69139522684059     -1.22664316199288     -0.00221797916935
| 22>   C          -0.69208843426613     -1.22326302618807     -0.00196525733051
| 23>   C          -1.34616039220304      0.00368865913958     -0.00023297142970
| 24>   C          -0.66844027654226      1.21468227709966      0.00138953263473
| 25>   C           0.71843497009282      1.19248771948923      0.00066270652995
| 26>   C           1.40687036809188     -0.02425170438717     -0.00101619596594
| 27>   C           2.90525430739599     -0.08038259963976     -0.00146963485712
| 28>   O           3.47382029732778     -1.16302464690175      0.00111415420213
| 29>   C           3.67189657948305      1.21206200897054     -0.00465317637956
| 30>   H           3.41916712103349      1.80793633317031      0.87637239446926
| 31>   H           4.73910184710129      1.00122370195943     -0.00799457044905
| 32>   H           3.41331173583201      1.80745504721735     -0.88415133468888
| 33>   H           1.25644606715329      2.13013407948356      0.00099979092485
| 34>   H          -1.21526162161310      2.14578953100855      0.00342527162178
| 35>   N          -2.81540793846571      0.01898129684798      0.00093485387668
| 36>   O          -3.38103867502306      1.10941225945787      0.00330237637192
| 37>   O          -3.40288918840984     -1.05983019471924     -0.00027163185462
| 38>   H          -1.25884617768305     -2.14248628889820     -0.00267181367981
| 39>   H           1.23537608385400     -2.16135779111698     -0.00359121482675
| 40> *
| 41>
| 42>                          ****END OF INPUT****
 Total Charge           Charge          ....    0
 Multiplicity           Mult            ....    1
 Number of Electrons    NEL             ....   86
Dispersion correction           -0.006598304
FINAL SINGLE POINT ENERGY      -589.298940292576
Dispersion correction             ... done (  0.1 sec)
Dispersion correction           -0.006610065
FINAL SINGLE POINT ENERGY      -589.299358966673
Dispersion correction             ... done (  0.0 sec)
Dispersion correction           -0.006610885
FINAL SINGLE POINT ENERGY      -589.299369686962
Dispersion correction             ... done (  0.1 sec)
FINAL SINGLE POINT ENERGY      -589.299295994162
Dispersion correction             ... done (  0.0 sec)
Dispersion correction           -0.006610536
FINAL SINGLE POINT ENERGY      -589.299373084490
Dispersion correction             ... done (  0.1 sec)
Dispersion correction           -0.006610384
FINAL SINGLE POINT ENERGY      -589.299372923382
Dispersion correction             ... done (  0.0 sec)
                    ***********************HURRAY********************

CARTESIAN COORDINATES (ANGSTROEM)
---------------------------------
  C      0.691732   -1.220917   -0.002210
  C     -0.688336   -1.218077   -0.001981
  C     -1.342847    0.004661   -0.000183
  C     -0.666169    1.212347    0.001448
  C      0.717238    1.191273    0.000723
  C      1.404971   -0.021679   -0.000955
  C      2.901362   -0.080181   -0.001288
  O      3.464925   -1.157687    0.001579
  C      3.663721    1.205959   -0.004780
  H      3.410289    1.802284    0.872811
  H      4.728710    0.996327   -0.008055
  H      3.404431    1.801353   -0.881142
  H      1.252940    2.128413    0.001072
  H     -1.211018    2.142792    0.003550
  N     -2.806761    0.019007    0.000856
  O     -3.368233    1.101281    0.003872
  O     -3.388497   -1.052507   -0.000991
  H     -1.251946   -2.137414   -0.002723
  H      1.234430   -2.154620   -0.003638

 Multiplicity           Mult            ....    1
 Number of Electrons    NEL             ....   86
 Basis Dimension        Dim             ....  713

ORBITAL ENERGIES
----------------

  NO   OCC          E(Eh)            E(eV)
   0   2.0000     -19.160366      -521.3801
   1   2.0000     -19.160302      -521.3783
   2   2.0000     -19.113276      -520.0987
   3   2.0000     -14.552739      -396.0002
   4   2.0000     -10.255027      -279.0535
   5   2.0000     -10.228653      -278.3358
   6   2.0000     -10.189189      -277.2619
   7   2.0000     -10.186576      -277.1908
   8   2.0000     -10.185881      -277.1719
   9   2.0000     -10.183305      -277.1018
  10   2.0000     -10.180173      -277.0166
  11   2.0000     -10.149264      -276.1755
  12   2.0000      -1.251879       -34.0654
  13   2.0000      -1.072701       -29.1897
  14   2.0000      -1.055635       -28.7253
  15   2.0000      -0.899618       -24.4799
  16   2.0000      -0.821319       -22.3492
  17   2.0000      -0.776799       -21.1378
  18   2.0000      -0.751339       -20.4450
  19   2.0000      -0.706490       -19.2246
  20   2.0000      -0.629277       -17.1235
  21   2.0000      -0.611194       -16.6314
  22   2.0000      -0.566436       -15.4135
  23   2.0000      -0.555527       -15.1167
  24   2.0000      -0.542745       -14.7688
  25   2.0000      -0.522770       -14.2253
  26   2.0000      -0.485077       -13.1996
  27   2.0000      -0.474293       -12.9062
  28   2.0000      -0.454860       -12.3774
  29   2.0000      -0.441387       -12.0107
  30   2.0000      -0.436253       -11.8711
  31   2.0000      -0.420007       -11.4290
  32   2.0000      -0.408558       -11.1174
  33   2.0000      -0.389802       -10.6071
  34   2.0000      -0.372117       -10.1258
  35   2.0000      -0.357167        -9.7190
  36   2.0000      -0.352513        -9.5924
  37   2.0000      -0.322930        -8.7874
  38   2.0000      -0.313951        -8.5430
  39   2.0000      -0.295763        -8.0481
  40   2.0000      -0.282112        -7.6767
  41   2.0000      -0.276338        -7.5195
  42   2.0000      -0.252558        -6.8724
  43   0.0000      -0.123419        -3.3584
  44   0.0000      -0.062192        -1.6923
  45   0.0000      -0.043386        -1.1806
  46   0.0000       0.007262         0.1976
  47   0.0000       0.021318         0.5801

MULLIKEN ATOMIC CHARGES
-----------------------
   0 C :   -0.884411
   1 C :   -0.355134
   2 C :    0.522664
   3 C :   -0.643777
   4 C :   -0.299078
   5 C :    1.210158
   6 C :    0.797446
   7 O :   -0.973341
   8 C :   -0.583765
   9 H :    0.261162
  10 H :    0.182381
  11 H :    0.259813
  12 H :    0.040086
  13 H :    0.466285
  14 N :    0.758109
  15 O :   -0.680023
  16 O :   -0.681092
  17 H :    0.540476
  18 H :    0.062040
Sum of atomic charges:   -0.0000000

LOEWDIN ATOMIC CHARGES
----------------------
   0 C :    0.225761
   1 C :    0.228900
   2 C :   -0.225352
   3 C :    0.234029
   4 C :    0.239829
   5 C :   -0.106573
   6 C :   -0.526839
   7 O :    0.492898
   8 C :    0.587744
   9 H :   -0.160755
  10 H :   -0.177415
  11 H :   -0.160996
  12 H :   -0.175665
  13 H :   -0.187810
  14 N :   -0.738581
  15 O :    0.411524
  16 O :    0.411798
  17 H :   -0.189136
  18 H :   -0.183360

  Mayer bond orders larger than 0.100000
B(  0-C ,  1-C ) :   1.2878 B(  0-C ,  2-C ) :  -0.3782 B(  0-C ,  4-C ) :  -0.3961
B(  0-C ,  5-C ) :   0.2298 B(  0-C ,  6-C ) :   0.2389 B(  0-C , 18-H ) :   1.2030
B(  1-C ,  2-C ) :   0.9106 B(  1-C ,  3-C ) :   0.1021 B(  1-C ,  4-C ) :  -0.1497
B(  1-C ,  5-C ) :   0.1877 B(  1-C , 14-N ) :  -0.1459 B(  1-C , 17-H ) :   0.3654
B(  2-C ,  3-C ) :   0.7451 B(  2-C ,  4-C ) :  -0.2906 B(  2-C , 14-N ) :   1.1898
B(  2-C , 15-O ) :   0.3927 B(  2-C , 16-O ) :   0.4027 B(  3-C ,  4-C ) :   0.8096
B(  3-C ,  5-C ) :   0.2197 B(  3-C , 13-H ) :   0.4723 B(  3-C , 14-N ) :  -0.2086
B(  4-C ,  5-C ) :   0.5364 B(  4-C ,  6-C ) :   0.1030 B(  4-C , 12-H ) :   1.3572
B(  5-C ,  6-C ) :   0.3256 B(  5-C ,  7-O ) :   0.2036 B(  5-C ,  8-C ) :   0.1094
B(  5-C , 12-H ) :  -0.1983 B(  5-C , 18-H ) :  -0.1405 B(  6-C ,  7-O ) :   0.8328
B(  6-C ,  8-C ) :   0.9224 B(  7-O , 18-H ) :   0.1639 B(  8-C ,  9-H ) :   0.9625
B(  8-C , 10-H ) :   0.9483 B(  8-C , 11-H ) :   0.9641 B( 14-N , 15-O ) :   0.9452
B( 14-N , 16-O ) :   0.9431 B( 15-O , 16-O ) :   0.1882

Dispersion correction           -0.006610369
FINAL SINGLE POINT ENERGY      -589.299374391171

DIPOLE MOMENT
-------------

Method             : SCF
Type of density    : Electron Density
Multiplicity       :   1
Irrep              :   0
Energy             :  -589.2927640222570744 Eh
Relativity type    :
Basis              : AO
                                X                 Y                 Z
Electronic contribution:     -9.348499565      -2.927734609       0.010237939
Nuclear contribution   :     10.791174838       4.278421149      -0.015100801
                        -----------------------------------------
Total Dipole Moment    :      1.442675273       1.350686540      -0.004862862
                        -----------------------------------------
Magnitude (a.u.)       :      1.976281791
Magnitude (Debye)      :      5.023309105

Rotational constants in cm-1:             0.096813             0.016025             0.013784
Rotational constants in MHz :          2902.385876           480.421318           413.238172

                             ****ORCA TERMINATED NORMALLY****
TOTAL RUN TIME: 0 days 0 hours 36 minutes 49 seconds 414 msec
