                         Program Version 6.0.0  -   RELEASE  -
|  1> !PBE0 def2-SV(p) Opt Freq d3 TightSCF SlowConv RIJCOSX defgrid2
|  2>
|  3> %pal
|  4> nprocs 4
|  5> end
|  6>
|  7> %scf
|  8> MaxIter 1500
|  9> end
| 10>
| 11> %maxcore 3000
| 12>
| 13>
| 14>
| 15> * xyz -1 2
| 16> C    -1.6362796    1.2177024   -0.1387218
| 17> C    -2.4040683    0.0340801    0.0421310
| 18> C    -1.6569744   -1.1650813    0.1942287
| 19> C    -0.2921498   -1.1681583    0.1666660
| 20> C     0.4703004    0.0117811    0.0010498
| 21> C    -0.2739476    1.2074636   -0.1513924
| 22> H     0.2495024    2.1408232   -0.3176867
| 23> C     1.9124696   -0.0009376   -0.0042441
| 24> C     2.6479152   -1.1620564   -0.3193477
| 25> C     4.0243657   -1.1712506   -0.3162075
| 26> C     4.7425704   -0.0246611   -0.0005843
| 27> C     4.0428987    1.1344195    0.3114272
| 28> C     2.6665684    1.1481790    0.3106592
| 29> H     2.1527168    2.0598191    0.5836305
| 30> H     4.5849443    2.0369226    0.5659678
| 31> H     5.8230499   -0.0336586    0.0018302
| 32> H     4.5523070   -2.0818210   -0.5702662
| 33> H     2.1202513   -2.0641764   -0.5955663
| 34> H     0.2219886   -2.1099119    0.3135610
| 35> H    -2.1781158   -2.1012089    0.3442938
| 36> C    -3.8248478    0.0957741    0.0625219
| 37> O    -4.4804917    1.1712938   -0.0679996
| 38> C    -4.5977342   -1.2098284    0.2515670
| 39> H    -5.6639600   -0.9919631    0.2495119
| 40> H    -4.3754664   -1.9048165   -0.5570350
| 41> H    -4.3325809   -1.6778322    1.1984630
| 42> H    -2.1812366    2.1453031   -0.2738713
| 43> *
| 44>
| 45>                          ****END OF INPUT****
 Total Charge           Charge          ....   -1
 Multiplicity           Mult            ....    2
 Number of Electrons    NEL             ....  105
Dispersion correction           -0.029041055
FINAL SINGLE POINT ENERGY      -614.807897387060
Dispersion correction             ... done (  0.1 sec)
Dispersion correction           -0.028851671
FINAL SINGLE POINT ENERGY      -614.811911808067
Dispersion correction             ... done (  0.1 sec)
Dispersion correction           -0.028815539
FINAL SINGLE POINT ENERGY      -614.812292028522
Dispersion correction             ... done (  0.1 sec)
FINAL SINGLE POINT ENERGY      -614.812414825665
FINAL SINGLE POINT ENERGY      -614.812451023009
FINAL SINGLE POINT ENERGY      -614.812464538197
Dispersion correction             ... done (  0.1 sec)
Dispersion correction           -0.028803994
FINAL SINGLE POINT ENERGY      -614.812473468518
Dispersion correction             ... done (  0.1 sec)
Dispersion correction           -0.028802100
FINAL SINGLE POINT ENERGY      -614.812476775654
Dispersion correction             ... done (  0.1 sec)
                    ***********************HURRAY********************

CARTESIAN COORDINATES (ANGSTROEM)
---------------------------------
  C     -1.658405    1.233156    0.026015
  C     -2.425786    0.032816    0.085288
  C     -1.675009   -1.178452    0.120367
  C     -0.298086   -1.184874    0.094498
  C      0.477684    0.012181    0.036405
  C     -0.285199    1.222920    0.005494
  H      0.234756    2.183528   -0.060459
  C      1.924372    0.001155    0.011001
  C      2.678839   -1.196756   -0.151011
  C      4.065491   -1.203861   -0.173907
  C      4.801486   -0.019116   -0.038325
  C      4.087146    1.175812    0.121621
  C      2.700539    1.188365    0.145985
  H      2.194158    2.145321    0.293690
  H      4.628112    2.122836    0.237013
  H      5.895712   -0.026745   -0.057139
  H      4.588962   -2.158238   -0.308220
  H      2.154676   -2.146598   -0.282831
  H      0.209174   -2.153017    0.144885
  H     -2.197719   -2.139345    0.177509
  C     -3.866421    0.103666    0.104964
  O     -4.500006    1.170924    0.077781
  C     -4.646533   -1.208062    0.160348
  H     -5.720829   -0.963571    0.161514
  H     -4.427978   -1.859319   -0.706989
  H     -4.412330   -1.794269    1.069237
  H     -2.212811    2.175743   -0.010146

 Multiplicity           Mult            ....    2
 Number of Electrons    NEL             ....  105
 Basis Dimension        Dim             ....  234

ORBITAL ENERGIES
----------------
                 SPIN UP ORBITALS
  NO   OCC          E(Eh)            E(eV)
   0   1.0000     -19.016040      -517.4528
   1   1.0000     -10.141639      -275.9680
   2   1.0000     -10.110943      -275.1327
   3   1.0000     -10.110678      -275.1255
   4   1.0000     -10.109158      -275.0842
   5   1.0000     -10.103811      -274.9387
   6   1.0000     -10.101529      -274.8766
   7   1.0000     -10.101122      -274.8655
   8   1.0000     -10.093894      -274.6688
   9   1.0000     -10.091025      -274.5907
  10   1.0000     -10.089832      -274.5583
  11   1.0000     -10.087896      -274.5056
  12   1.0000     -10.085039      -274.4279
  13   1.0000     -10.080711      -274.3101
  14   1.0000     -10.074519      -274.1416
  15   1.0000      -0.871815       -23.7233
  16   1.0000      -0.746673       -20.3180
  17   1.0000      -0.719116       -19.5681
  18   1.0000      -0.658555       -17.9202
  19   1.0000      -0.633323       -17.2336
  20   1.0000      -0.621700       -16.9173
  21   1.0000      -0.610665       -16.6170
  22   1.0000      -0.586180       -15.9508
  23   1.0000      -0.517935       -14.0937
  24   1.0000      -0.495282       -13.4773
  25   1.0000      -0.466312       -12.6890
  26   1.0000      -0.453794       -12.3484
  27   1.0000      -0.418191       -11.3796
  28   1.0000      -0.408033       -11.1031
  29   1.0000      -0.365122        -9.9355
  30   1.0000      -0.347669        -9.4605
  31   1.0000      -0.340867        -9.2754
  32   1.0000      -0.315956        -8.5976
  33   1.0000      -0.312486        -8.5032
  34   1.0000      -0.310322        -8.4443
  35   1.0000      -0.305650        -8.3171
  36   1.0000      -0.303886        -8.2692
  37   1.0000      -0.283788        -7.7223
  38   1.0000      -0.269827        -7.3424
  39   1.0000      -0.267293        -7.2734
  40   1.0000      -0.263517        -7.1707
  41   1.0000      -0.242257        -6.5921
  42   1.0000      -0.241110        -6.5609
  43   1.0000      -0.226616        -6.1665
  44   1.0000      -0.224281        -6.1030
  45   1.0000      -0.214872        -5.8470
  46   1.0000      -0.188034        -5.1167
  47   1.0000      -0.161585        -4.3969
  48   1.0000      -0.143565        -3.9066
  49   1.0000      -0.126567        -3.4441
  50   1.0000      -0.100160        -2.7255
  51   1.0000      -0.096171        -2.6169
  52   1.0000       0.022629         0.6158
  53   0.0000       0.121677         3.3110
  54   0.0000       0.122991         3.3467
  55   0.0000       0.152931         4.1615
  56   0.0000       0.179987         4.8977
  57   0.0000       0.195318         5.3149

                 SPIN DOWN ORBITALS
  NO   OCC          E(Eh)            E(eV)
   0   1.0000     -19.010931      -517.3137
   1   1.0000     -10.140164      -275.9279
   2   1.0000     -10.111880      -275.1583
   3   1.0000     -10.111611      -275.1509
   4   1.0000     -10.109022      -275.0805
   5   1.0000     -10.101057      -274.8637
   6   1.0000     -10.099838      -274.8306
   7   1.0000     -10.099436      -274.8196
   8   1.0000     -10.094081      -274.6739
   9   1.0000     -10.089071      -274.5376
  10   1.0000     -10.088014      -274.5088
  11   1.0000     -10.087569      -274.4967
  12   1.0000     -10.084964      -274.4258
  13   1.0000     -10.079912      -274.2884
  14   1.0000     -10.072216      -274.0789
  15   1.0000      -0.862947       -23.4820
  16   1.0000      -0.743743       -20.2383
  17   1.0000      -0.715716       -19.4756
  18   1.0000      -0.653293       -17.7770
  19   1.0000      -0.631276       -17.1779
  20   1.0000      -0.618643       -16.8341
  21   1.0000      -0.607298       -16.5254
  22   1.0000      -0.583241       -15.8708
  23   1.0000      -0.510805       -13.8997
  24   1.0000      -0.494521       -13.4566
  25   1.0000      -0.462794       -12.5933
  26   1.0000      -0.452921       -12.3246
  27   1.0000      -0.416070       -11.3218
  28   1.0000      -0.405697       -11.0396
  29   1.0000      -0.362378        -9.8608
  30   1.0000      -0.346054        -9.4166
  31   1.0000      -0.338971        -9.2239
  32   1.0000      -0.314713        -8.5638
  33   1.0000      -0.309536        -8.4229
  34   1.0000      -0.307001        -8.3539
  35   1.0000      -0.304492        -8.2857
  36   1.0000      -0.301908        -8.2153
  37   1.0000      -0.283123        -7.7042
  38   1.0000      -0.268435        -7.3045
  39   1.0000      -0.261610        -7.1188
  40   1.0000      -0.257650        -7.0110
  41   1.0000      -0.240483        -6.5439
  42   1.0000      -0.230409        -6.2698
  43   1.0000      -0.225757        -6.1432
  44   1.0000      -0.222114        -6.0440
  45   1.0000      -0.195523        -5.3205
  46   1.0000      -0.187104        -5.0913
  47   1.0000      -0.145690        -3.9644
  48   1.0000      -0.137468        -3.7407
  49   1.0000      -0.117482        -3.1969
  50   1.0000      -0.095474        -2.5980
  51   1.0000      -0.077221        -2.1013
  52   0.0000       0.088485         2.4078
  53   0.0000       0.125051         3.4028
  54   0.0000       0.146286         3.9806
  55   0.0000       0.155582         4.2336
  56   0.0000       0.180442         4.9101

MULLIKEN ATOMIC CHARGES AND SPIN POPULATIONS
--------------------------------------------
   0 C :   -0.135335    0.059426
   1 C :    0.008321    0.159557
   2 C :   -0.152633    0.054650
   3 C :   -0.165732   -0.007689
   4 C :    0.071380    0.221194
   5 C :   -0.163656   -0.000553
   6 H :    0.048749   -0.001412
   7 C :    0.087090   -0.009632
   8 C :   -0.181103    0.124010
   9 C :   -0.087658   -0.075205
  10 C :   -0.135750    0.199932
  11 C :   -0.087801   -0.074807
  12 C :   -0.182175    0.123476
  13 H :    0.062957   -0.007027
  14 H :    0.049000    0.002934
  15 H :    0.045327   -0.011874
  16 H :    0.048123    0.002962
  17 H :    0.061152   -0.007063
  18 H :    0.043516   -0.001001
  19 H :    0.037639   -0.004045
  20 C :    0.020981    0.087613
  21 O :   -0.338535    0.173751
  22 C :   -0.330277   -0.013677
  23 H :    0.098164   -0.000566
  24 H :    0.110102    0.004770
  25 H :    0.109946    0.004891
  26 H :    0.058206   -0.004614
Sum of atomic charges         :   -1.0000000

LOEWDIN ATOMIC CHARGES AND SPIN POPULATIONS
-------------------------------------------
   0 C :   -0.125347    0.056398
   1 C :   -0.143995    0.135689
   2 C :   -0.148991    0.051900
   3 C :   -0.152171    0.010669
   4 C :   -0.094988    0.178293
   5 C :   -0.151093    0.016848
   6 H :    0.107786   -0.000632
   7 C :   -0.046531    0.028619
   8 C :   -0.154659    0.093903
   9 C :   -0.147037   -0.038596
  10 C :   -0.207071    0.153680
  11 C :   -0.146629   -0.038295
  12 C :   -0.153754    0.093604
  13 H :    0.114586   -0.003199
  14 H :    0.106783    0.001355
  15 H :    0.104442   -0.005370
  16 H :    0.106374    0.001366
  17 H :    0.113309   -0.003213
  18 H :    0.106931   -0.000443
  19 H :    0.106145   -0.001871
  20 C :   -0.005271    0.096789
  21 O :   -0.283424    0.170687
  22 C :   -0.372038   -0.004307
  23 H :    0.114121   -0.000265
  24 H :    0.117410    0.004248
  25 H :    0.117364    0.004327
  26 H :    0.117748   -0.002185

  Mayer bond orders larger than 0.100000
B(  0-C ,  1-C ) :   1.2466 B(  0-C ,  5-C ) :   1.5141 B(  0-C , 26-H ) :   0.9547
B(  1-C ,  2-C ) :   1.2285 B(  1-C , 20-C ) :   1.1494 B(  2-C ,  3-C ) :   1.5292
B(  2-C , 19-H ) :   0.9429 B(  3-C ,  4-C ) :   1.2496 B(  3-C , 18-H ) :   0.9418
B(  4-C ,  5-C ) :   1.2296 B(  4-C ,  7-C ) :   1.1970 B(  5-C ,  6-H ) :   0.9463
B(  7-C ,  8-C ) :   1.2914 B(  7-C , 12-C ) :   1.2918 B(  8-C ,  9-C ) :   1.4623
B(  8-C , 17-H ) :   0.9423 B(  9-C , 10-C ) :   1.3351 B(  9-C , 16-H ) :   0.9596
B( 10-C , 11-C ) :   1.3350 B( 10-C , 15-H ) :   0.9672 B( 11-C , 12-C ) :   1.4619
B( 11-C , 14-H ) :   0.9598 B( 12-C , 13-H ) :   0.9430 B( 20-C , 21-O ) :   1.9654
B( 20-C , 22-C ) :   1.0665 B( 22-C , 23-H ) :   0.9477 B( 22-C , 24-H ) :   0.9339
B( 22-C , 25-H ) :   0.9337

Dispersion correction           -0.028801205
FINAL SINGLE POINT ENERGY      -614.812477890807

DIPOLE MOMENT
-------------

Method             : SCF
Type of density    : Electron Density
Multiplicity       :   2
Irrep              :   0
Energy             :  -614.7836766860493753 Eh
Relativity type    :
Basis              : AO
                                X                 Y                 Z
Electronic contribution:      0.732128559       3.541468552      -0.125218466
Nuclear contribution   :      0.834188955      -4.415620198       0.130351873
                        -----------------------------------------
Total Dipole Moment    :      1.566317514      -0.874151646       0.005133407
                        -----------------------------------------
Magnitude (a.u.)       :      1.793744130
Magnitude (Debye)      :      4.559335243

VIBRATIONAL FREQUENCIES
-----------------------

Scaling factor for frequencies =  1.000000000  (already applied!)

     0:       0.00 cm**-1
     1:       0.00 cm**-1
     2:       0.00 cm**-1
     3:       0.00 cm**-1
     4:       0.00 cm**-1
     5:       0.00 cm**-1
     6:      29.32 cm**-1
     7:      50.50 cm**-1
     8:     108.08 cm**-1
     9:     114.78 cm**-1
    10:     144.16 cm**-1
    11:     144.89 cm**-1
    12:     221.63 cm**-1
    13:     252.91 cm**-1
    14:     258.65 cm**-1
    15:     391.18 cm**-1
    16:     412.78 cm**-1
    17:     426.47 cm**-1
    18:     436.96 cm**-1
    19:     448.17 cm**-1
    20:     508.22 cm**-1
    21:     520.30 cm**-1
    22:     582.31 cm**-1
    23:     591.90 cm**-1
    24:     626.46 cm**-1
    25:     649.94 cm**-1
    26:     692.76 cm**-1
    27:     692.96 cm**-1
    28:     727.01 cm**-1
    29:     760.38 cm**-1
    30:     779.52 cm**-1
    31:     793.81 cm**-1
    32:     817.03 cm**-1
    33:     823.56 cm**-1
    34:     870.30 cm**-1
    35:     953.91 cm**-1
    36:     956.17 cm**-1
    37:     968.27 cm**-1
    38:     975.59 cm**-1
    39:     989.70 cm**-1
    40:     995.56 cm**-1
    41:    1000.33 cm**-1
    42:    1020.01 cm**-1
    43:    1021.14 cm**-1
    44:    1055.81 cm**-1
    45:    1082.78 cm**-1
    46:    1104.37 cm**-1
    47:    1136.05 cm**-1
    48:    1156.86 cm**-1
    49:    1189.03 cm**-1
    50:    1216.59 cm**-1
    51:    1295.95 cm**-1
    52:    1315.86 cm**-1
    53:    1339.48 cm**-1
    54:    1357.86 cm**-1
    55:    1364.20 cm**-1
    56:    1388.26 cm**-1
    57:    1400.44 cm**-1
    58:    1454.87 cm**-1
    59:    1463.48 cm**-1
    60:    1486.61 cm**-1
    61:    1513.51 cm**-1
    62:    1526.67 cm**-1
    63:    1539.25 cm**-1
    64:    1554.89 cm**-1
    65:    1598.61 cm**-1
    66:    1659.64 cm**-1
    67:    1692.39 cm**-1
    68:    1707.95 cm**-1
    69:    3009.92 cm**-1
    70:    3088.49 cm**-1
    71:    3142.35 cm**-1
    72:    3157.17 cm**-1
    73:    3163.40 cm**-1
    74:    3169.90 cm**-1
    75:    3179.37 cm**-1
    76:    3191.78 cm**-1
    77:    3195.57 cm**-1
    78:    3205.66 cm**-1
    79:    3209.86 cm**-1
    80:    3213.39 cm**-1

IR SPECTRUM
-----------

 Mode   freq       eps      Int      T**2         TX        TY        TZ
       cm**-1   L/(mol*cm) km/mol    a.u.
----------------------------------------------------------------------------
  6:     29.32   0.000215    1.09  0.002293  ( 0.030381  0.001479  0.036979)
  7:     50.50   0.000011    0.06  0.000069  ( 0.001456  0.001096  0.008134)
  8:    108.08   0.000394    1.99  0.001139  (-0.010884 -0.000158  0.031946)
  9:    114.78   0.000193    0.98  0.000525  ( 0.019195  0.005272  0.011364)
 10:    144.16   0.000063    0.32  0.000137  ( 0.000013 -0.000553 -0.011677)
 11:    144.89   0.000217    1.10  0.000468  ( 0.010670 -0.000273 -0.018813)
 12:    221.63   0.000619    3.13  0.000871  ( 0.028862  0.005520  0.002803)
 13:    252.91   0.000125    0.63  0.000154  (-0.010810 -0.005577  0.002524)
 14:    258.65   0.000331    1.67  0.000399  (-0.019129 -0.005633  0.001135)
 15:    391.18   0.001325    6.70  0.001057  ( 0.009061 -0.006754 -0.030488)
 16:    412.78   0.001015    5.13  0.000768  ( 0.009358 -0.013216  0.022482)
 17:    426.47   0.000323    1.63  0.000236  ( 0.015066  0.000248  0.003062)
 18:    436.96   0.000491    2.48  0.000351  ( 0.014486  0.007822  0.008931)
 19:    448.17   0.000067    0.34  0.000047  ( 0.003992 -0.001766 -0.005241)
 20:    508.22   0.004608   23.29  0.002830  ( 0.052946 -0.004896 -0.001527)
 21:    520.30   0.000696    3.52  0.000418  (-0.001818 -0.006984  0.019121)
 22:    582.31   0.000902    4.56  0.000483  ( 0.001404  0.005441  0.021252)
 23:    591.90   0.000794    4.01  0.000419  ( 0.016936  0.011327 -0.001921)
 24:    626.46   0.000005    0.02  0.000002  ( 0.001147  0.000065 -0.000970)
 25:    649.94   0.000030    0.15  0.000015  ( 0.001389  0.002691  0.002313)
 26:    692.76   0.001894    9.57  0.000853  (-0.004433  0.000640 -0.028866)
 27:    692.96   0.006560   33.15  0.002954  ( 0.000802  0.011320 -0.053155)
 28:    727.01   0.003923   19.82  0.001684  (-0.001139  0.001366 -0.040997)
 29:    760.38   0.002981   15.07  0.001223  ( 0.000959 -0.001266 -0.034942)
 30:    779.52   0.000120    0.61  0.000048  (-0.006934 -0.000112 -0.000279)
 31:    793.81   0.000840    4.25  0.000330  ( 0.011167 -0.001206 -0.014289)
 32:    817.03   0.002587   13.07  0.000988  (-0.009770 -0.001580 -0.029836)
 33:    823.56   0.002824   14.27  0.001070  ( 0.001876 -0.001736 -0.032612)
 34:    870.30   0.000519    2.62  0.000186  ( 0.000697  0.006701 -0.011860)
 35:    953.91   0.052591  265.77  0.017205  ( 0.130812  0.009346 -0.002337)
 36:    956.17   0.000861    4.35  0.000281  (-0.016129 -0.004135  0.001961)
 37:    968.27   0.000012    0.06  0.000004  ( 0.001615 -0.000192  0.001164)
 38:    975.59   0.000076    0.38  0.000024  ( 0.002518 -0.002595  0.003358)
 39:    989.70   0.000677    3.42  0.000213  ( 0.013456  0.001298 -0.005532)
 40:    995.56   0.032362  163.54  0.010144  (-0.100710  0.000495  0.001149)
 41:   1000.33   0.000372    1.88  0.000116  (-0.010139 -0.003619  0.000238)
 42:   1020.01   0.000443    2.24  0.000135  (-0.000829 -0.000665 -0.011587)
 43:   1021.14   0.003206   16.20  0.000980  ( 0.031273 -0.001181 -0.000643)
 44:   1055.81   0.011374   57.48  0.003362  (-0.057925  0.002362  0.000901)
 45:   1082.78   0.001614    8.16  0.000465  ( 0.018887 -0.010416  0.000056)
 46:   1104.37   0.000283    1.43  0.000080  (-0.002176 -0.008573 -0.001359)
 47:   1136.05   0.001986   10.04  0.000546  (-0.012997  0.019407 -0.000030)
 48:   1156.86   0.000442    2.23  0.000119  ( 0.001124 -0.010797 -0.001175)
 49:   1189.03   0.012292   62.12  0.003226  (-0.056765 -0.001567  0.001125)
 50:   1216.59   0.004176   21.11  0.001071  ( 0.032075 -0.006514 -0.000280)
 51:   1295.95   0.001051    5.31  0.000253  ( 0.002242 -0.015748 -0.000325)
 52:   1315.86   0.002676   13.52  0.000635  ( 0.024414  0.006194 -0.000319)
 53:   1339.48   0.053931  272.54  0.012564  (-0.112071 -0.000899  0.001961)
 54:   1357.86   0.012265   61.98  0.002819  ( 0.051345  0.013442 -0.001319)
 55:   1364.20   0.010353   52.32  0.002368  (-0.048577 -0.002809  0.000856)
 56:   1388.26   0.010352   52.32  0.002327  (-0.030107 -0.037666  0.001378)
 57:   1400.44   0.001840    9.30  0.000410  ( 0.017807 -0.009156 -0.003018)
 58:   1454.87   0.015098   76.30  0.003238  ( 0.055719 -0.011562 -0.000419)
 59:   1463.48   0.001039    5.25  0.000222  ( 0.000322  0.000647  0.014866)
 60:   1486.61   0.006524   32.97  0.001370  (-0.034870 -0.012390 -0.000415)
 61:   1513.51   0.013945   70.47  0.002875  ( 0.052237  0.012059 -0.001098)
 62:   1526.67   0.009818   49.61  0.002007  (-0.044085  0.007905  0.000920)
 63:   1539.25   0.015853   80.12  0.003214  (-0.056155 -0.007779  0.000400)
 64:   1554.89   0.110992  560.91  0.022276  ( 0.149217 -0.001657 -0.002766)
 65:   1598.61   0.001275    6.44  0.000249  (-0.005561  0.014633  0.001946)
 66:   1659.64   0.339905  1717.74  0.063913  (-0.250557  0.033537  0.003040)
 67:   1692.39   0.005905   29.84  0.001089  ( 0.018411 -0.027376  0.000715)
 68:   1707.95   0.062994  318.35  0.011510  ( 0.099837 -0.039273 -0.000253)
 69:   3009.92   0.019837  100.25  0.002057  (-0.041032 -0.019246  0.001629)
 70:   3088.49   0.004791   24.21  0.000484  ( 0.000585  0.000768  0.021980)
 71:   3142.35   0.003292   16.64  0.000327  ( 0.017300 -0.005261 -0.000098)
 72:   3157.17   0.006892   34.83  0.000681  ( 0.026062 -0.001241 -0.000655)
 73:   3163.40   0.008035   40.61  0.000793  (-0.000832 -0.027949 -0.003282)
 74:   3169.90   0.001698    8.58  0.000167  (-0.006683 -0.011064 -0.000277)
 75:   3179.37   0.000411    2.08  0.000040  (-0.001073 -0.006135  0.001233)
 76:   3191.78   0.003245   16.40  0.000317  ( 0.003916 -0.017284  0.001790)
 77:   3195.57   0.008803   44.49  0.000860  ( 0.028147  0.008121 -0.001202)
 78:   3205.66   0.000524    2.65  0.000051  ( 0.004398 -0.005435  0.001465)
 79:   3209.86   0.011725   59.25  0.001140  (-0.002662  0.033577  0.002333)
 80:   3213.39   0.002174   10.99  0.000211  (-0.007724 -0.012295 -0.000541)

--------------------------
THERMOCHEMISTRY AT 298.15K
--------------------------

Temperature         ...   298.15 K
Pressure            ...     1.00 atm
Total Mass          ...   196.25 AMU
Quasi RRHO          ...     True
Cut-Off Frequency   ...     1.00 cm^-1

Throughout the following assumptions are being made:
  (1) The electronic state is orbitally nondegenerate
      but the spin degeneracy is treated
  (2) There are no thermally accessible electronically excited states
  (3) Hindered rotations indicated by low frequency modes are not
      treated as such but are treated as vibrations and this may
      cause some error
  (4) All equations used are the standard statistical mechanics
      equations for an ideal gas
  (5) All vibrations are strictly harmonic

freq.      29.32  E(vib)   ...       0.55
freq.      50.50  E(vib)   ...       0.52
freq.     108.08  E(vib)   ...       0.45
freq.     114.78  E(vib)   ...       0.44
freq.     144.16  E(vib)   ...       0.41
freq.     144.89  E(vib)   ...       0.41
freq.     221.63  E(vib)   ...       0.33
freq.     252.91  E(vib)   ...       0.30
freq.     258.65  E(vib)   ...       0.30
freq.     391.18  E(vib)   ...       0.20
freq.     412.78  E(vib)   ...       0.19
freq.     426.47  E(vib)   ...       0.18
freq.     436.96  E(vib)   ...       0.17
freq.     448.17  E(vib)   ...       0.17
freq.     508.22  E(vib)   ...       0.14
freq.     520.30  E(vib)   ...       0.13
freq.     582.31  E(vib)   ...       0.11
freq.     591.90  E(vib)   ...       0.10
freq.     626.46  E(vib)   ...       0.09
freq.     649.94  E(vib)   ...       0.08
freq.     692.76  E(vib)   ...       0.07
freq.     692.96  E(vib)   ...       0.07
freq.     727.01  E(vib)   ...       0.06
freq.     760.38  E(vib)   ...       0.06
freq.     779.52  E(vib)   ...       0.05
freq.     793.81  E(vib)   ...       0.05
freq.     817.03  E(vib)   ...       0.05
freq.     823.56  E(vib)   ...       0.05
freq.     870.30  E(vib)   ...       0.04
freq.     953.91  E(vib)   ...       0.03
freq.     956.17  E(vib)   ...       0.03
freq.     968.27  E(vib)   ...       0.03
freq.     975.59  E(vib)   ...       0.03
freq.     989.70  E(vib)   ...       0.02
freq.     995.56  E(vib)   ...       0.02
freq.    1000.33  E(vib)   ...       0.02
freq.    1020.01  E(vib)   ...       0.02
freq.    1021.14  E(vib)   ...       0.02
freq.    1055.81  E(vib)   ...       0.02
freq.    1082.78  E(vib)   ...       0.02
freq.    1104.37  E(vib)   ...       0.02
freq.    1136.05  E(vib)   ...       0.01
freq.    1156.86  E(vib)   ...       0.01
freq.    1189.03  E(vib)   ...       0.01
freq.    1216.59  E(vib)   ...       0.01
freq.    1295.95  E(vib)   ...       0.01
freq.    1315.86  E(vib)   ...       0.01
freq.    1339.48  E(vib)   ...       0.01
freq.    1357.86  E(vib)   ...       0.01
freq.    1364.20  E(vib)   ...       0.01
freq.    1388.26  E(vib)   ...       0.00
freq.    1400.44  E(vib)   ...       0.00
freq.    1454.87  E(vib)   ...       0.00
freq.    1463.48  E(vib)   ...       0.00
freq.    1486.61  E(vib)   ...       0.00
freq.    1513.51  E(vib)   ...       0.00
freq.    1526.67  E(vib)   ...       0.00
freq.    1539.25  E(vib)   ...       0.00
freq.    1554.89  E(vib)   ...       0.00
freq.    1598.61  E(vib)   ...       0.00
freq.    1659.64  E(vib)   ...       0.00
freq.    1692.39  E(vib)   ...       0.00
freq.    1707.95  E(vib)   ...       0.00
freq.    3009.92  E(vib)   ...       0.00
freq.    3088.49  E(vib)   ...       0.00
freq.    3142.35  E(vib)   ...       0.00
freq.    3157.17  E(vib)   ...       0.00
freq.    3163.40  E(vib)   ...       0.00
freq.    3169.90  E(vib)   ...       0.00
freq.    3179.37  E(vib)   ...       0.00
freq.    3191.78  E(vib)   ...       0.00
freq.    3195.57  E(vib)   ...       0.00
freq.    3205.66  E(vib)   ...       0.00
freq.    3209.86  E(vib)   ...       0.00
freq.    3213.39  E(vib)   ...       0.00

------------
INNER ENERGY
------------

The inner energy is: U= E(el) + E(ZPE) + E(vib) + E(rot) + E(trans)
    E(el)   - is the total energy from the electronic structure calculation
              = E(kin-el) + E(nuc-el) + E(el-el) + E(nuc-nuc)
    E(ZPE)  - the the zero temperature vibrational energy from the frequency calculation
    E(vib)  - the the finite temperature correction to E(ZPE) due to population
              of excited vibrational states
    E(rot)  - is the rotational thermal energy
    E(trans)- is the translational thermal energy

Summary of contributions to the inner energy U:
Electronic energy                ...   -614.81247789 Eh
Zero point energy                ...      0.21707723 Eh     136.22 kcal/mol
Thermal vibrational correction   ...      0.00982080 Eh       6.16 kcal/mol
Thermal rotational correction    ...      0.00141627 Eh       0.89 kcal/mol
Thermal translational correction ...      0.00141627 Eh       0.89 kcal/mol
-----------------------------------------------------------------------
Total thermal energy                   -614.58274732 Eh

Summary of corrections to the electronic energy:
(perhaps to be used in another calculation)
Total thermal correction                  0.01265334 Eh       7.94 kcal/mol
Non-thermal (ZPE) correction              0.21707723 Eh     136.22 kcal/mol
-----------------------------------------------------------------------
Total correction                          0.22973057 Eh     144.16 kcal/mol

--------
ENTHALPY
--------

The enthalpy is H = U + kB*T
                kB is Boltzmann's constant
Total thermal energy              ...   -614.58274732 Eh
Thermal Enthalpy correction       ...      0.00094421 Eh       0.59 kcal/mol
-----------------------------------------------------------------------
Total Enthalpy                    ...   -614.58180311 Eh

Note: Only C1 symmetry has been detected, increase convergence thresholds
      if your molecule has a higher symmetry. Symmetry factor of 1.0 is
      used for the rotational entropy correction.

Note: Rotational entropy computed according to Herzberg
Infrared and Raman Spectra, Chapter V,1, Van Nostrand Reinhold, 1945
Point Group:  C1, Symmetry Number:   1
Rotational constants in cm-1:     0.074676     0.008546     0.007689

Vibrational entropy computed according to the QRRHO of S. Grimme
Chem.Eur.J. 2012 18 9955 using a reference frequency of 100.0 cm-1

-------
ENTROPY
-------

The entropy contributions are T*S = T*(S(el)+S(vib)+S(rot)+S(trans))
     S(el)   - electronic entropy
     S(vib)  - vibrational entropy
     S(rot)  - rotational entropy

                             ****ORCA TERMINATED NORMALLY****
TOTAL RUN TIME: 0 days 0 hours 27 minutes 20 seconds 150 msec
