                         Program Version 6.0.0  -   RELEASE  -
|  1> !PBE0 freq aug-cc-pVTZ d3 TightSCF SlowConv RIJCOSX defgrid2
|  2>
|  3> %pal
|  4> nprocs 12
|  5> end
|  6>
|  7> %scf
|  8> MaxIter 1500
|  9> end
| 10>
| 11> %maxcore 5000
| 12>
| 13> !CPCM
| 14> %cpcm smd true
| 15> SMDsolvent "MeCN"
| 16> surfacetype gepol_ses
| 17> rsolv 2.19
| 18> end
| 19>
| 20> * xyz 0 1
| 21> C          -0.02823709061713      1.19063257018440     -0.00014139992596
| 22> C           1.35625409162601      1.22104341748831      0.00003041365839
| 23> C           2.03492017781393      0.01929330171409      0.00009372391025
| 24> C           1.39198985658836     -1.20496959383609      0.00042857698658
| 25> C           0.01077560247457     -1.21460833053159     -0.00002825267993
| 26> C          -0.71465470053030     -0.02276430121413     -0.00042813981711
| 27> C          -2.20071161418239     -0.08655023562666     -0.00110314687285
| 28> O          -2.77238921641311     -1.16160341674960     -0.00226605927384
| 29> C          -2.97016800194173      1.19867899515133     -0.00010280985619
| 30> H          -2.71896625577608      1.79687289773544      0.87891002410570
| 31> H          -2.72091677946366      1.79721331398486     -0.87953600474145
| 32> H          -4.03631412517939      0.98295933978583      0.00108159960096
| 33> H          -0.52623491416595     -2.15420454223482      0.00015101669882
| 34> H           1.96813984650218     -2.12107480223823      0.00086029651718
| 35> F           3.37704969066162      0.03868970304714     -0.00010370587318
| 36> H           1.90281824730992      2.15491168772666     -0.00003784849558
| 37> H          -0.56898671470682      2.12757209561305      0.00046531605822
| 38> *
| 39>
| 40>                          ****END OF INPUT****

CARTESIAN COORDINATES (ANGSTROEM)
---------------------------------
  C     -0.028237    1.190633   -0.000141
  C      1.356254    1.221043    0.000030
  C      2.034920    0.019293    0.000094
  C      1.391990   -1.204970    0.000429
  C      0.010776   -1.214608   -0.000028
  C     -0.714655   -0.022764   -0.000428
  C     -2.200712   -0.086550   -0.001103
  O     -2.772389   -1.161603   -0.002266
  C     -2.970168    1.198679   -0.000103
  H     -2.718966    1.796873    0.878910
  H     -2.720917    1.797213   -0.879536
  H     -4.036314    0.982959    0.001082
  H     -0.526235   -2.154205    0.000151
  H      1.968140   -2.121075    0.000860
  F      3.377050    0.038690   -0.000104
  H      1.902818    2.154912   -0.000038
  H     -0.568987    2.127572    0.000465

 Total Charge           Charge          ....    0
 Multiplicity           Mult            ....    1
 Number of Electrons    NEL             ....   72
 Basis Dimension        Dim             ....  621

ORBITAL ENERGIES
----------------

  NO   OCC          E(Eh)            E(eV)
   0   2.0000     -24.798907      -674.8126
   1   2.0000     -19.197935      -522.4024
   2   2.0000     -10.324265      -280.9375
   3   2.0000     -10.316751      -280.7331
   4   2.0000     -10.246868      -278.8315
   5   2.0000     -10.243933      -278.7516
   6   2.0000     -10.242298      -278.7071
   7   2.0000     -10.240113      -278.6476
   8   2.0000     -10.240097      -278.6472
   9   2.0000     -10.215455      -277.9767
  10   2.0000      -1.275193       -34.6998
  11   2.0000      -1.074153       -29.2292
  12   2.0000      -0.904791       -24.6206
  13   2.0000      -0.805185       -21.9102
  14   2.0000      -0.791520       -21.5383
  15   2.0000      -0.753882       -20.5142
  16   2.0000      -0.661302       -17.9949
  17   2.0000      -0.651391       -17.7253
  18   2.0000      -0.578139       -15.7320
  19   2.0000      -0.573314       -15.6007
  20   2.0000      -0.523144       -14.2355
  21   2.0000      -0.502153       -13.6643
  22   2.0000      -0.501801       -13.6547
  23   2.0000      -0.469225       -12.7683
  24   2.0000      -0.457910       -12.4604
  25   2.0000      -0.451508       -12.2862
  26   2.0000      -0.450799       -12.2669
  27   2.0000      -0.423353       -11.5200
  28   2.0000      -0.419086       -11.4039
  29   2.0000      -0.394107       -10.7242
  30   2.0000      -0.390159       -10.6168
  31   2.0000      -0.369354       -10.0506
  32   2.0000      -0.361969        -9.8497
  33   2.0000      -0.285183        -7.7602
  34   2.0000      -0.271648        -7.3919
  35   2.0000      -0.271421        -7.3857
  36   0.0000      -0.057512        -1.5650
  37   0.0000      -0.021928        -0.5967
  38   0.0000       0.001949         0.0530
  39   0.0000       0.014616         0.3977
  40   0.0000       0.018601         0.5062

MULLIKEN ATOMIC CHARGES
-----------------------
   0 C :   -0.478790
   1 C :   -0.914089
   2 C :    0.553350
   3 C :   -0.756052
   4 C :   -0.837238
   5 C :    1.122864
   6 C :    0.688261
   7 O :   -0.904585
   8 C :   -0.641335
   9 H :    0.299580
  10 H :    0.300051
  11 H :    0.197679
  12 H :    0.378585
  13 H :    0.572643
  14 F :   -0.490248
  15 H :    0.539554
  16 H :    0.369771
Sum of atomic charges:    0.0000000

LOEWDIN ATOMIC CHARGES
----------------------
   0 C :    0.203610
   1 C :    0.211347
   2 C :   -0.538758
   3 C :    0.206725
   4 C :    0.191621
   5 C :   -0.135502
   6 C :   -0.552611
   7 O :    0.486436
   8 C :    0.572390
   9 H :   -0.160173
  10 H :   -0.159983
  11 H :   -0.177119
  12 H :   -0.182473
  13 H :   -0.167045
  14 F :    0.543641
  15 H :   -0.166091
  16 H :   -0.176013

  Mayer bond orders larger than 0.100000
B(  0-C ,  1-C ) :   1.0705 B(  0-C ,  2-C ) :  -0.2154 B(  0-C ,  4-C ) :  -0.2584
B(  0-C ,  5-C ) :   0.6635 B(  0-C , 16-H ) :   0.8340 B(  1-C ,  2-C ) :   1.4851
B(  1-C ,  3-C ) :   0.2926 B(  1-C , 14-F ) :   0.2108 B(  1-C , 15-H ) :   0.3759
B(  2-C ,  3-C ) :   1.4751 B(  2-C ,  4-C ) :  -0.2953 B(  2-C , 14-F ) :   0.2858
B(  3-C ,  4-C ) :   1.4249 B(  3-C , 13-H ) :   0.3284 B(  3-C , 14-F ) :   0.2130
B(  4-C ,  5-C ) :   0.5578 B(  4-C ,  6-C ) :   0.1564 B(  4-C , 12-H ) :   0.7196
B(  5-C ,  6-C ) :   0.4423 B(  5-C ,  7-O ) :   0.1174 B(  6-C ,  7-O ) :   0.9089
B(  6-C ,  8-C ) :   0.9566 B(  7-O , 12-H ) :   0.1368 B(  8-C ,  9-H ) :   0.9062
B(  8-C , 10-H ) :   0.9059 B(  8-C , 11-H ) :   0.9559 B( 12-H , 16-H ) :   0.1177
B( 13-H , 14-F ) :   0.1329 B( 14-F , 15-H ) :   0.1217

Dispersion correction           -0.015398733
FINAL SINGLE POINT ENERGY      -483.793352868360

DIPOLE MOMENT
-------------

Method             : SCF
Type of density    : Electron Density
Multiplicity       :   1
Irrep              :   0
Energy             :  -483.7779541355059791 Eh
Relativity type    :
Basis              : AO
                                X                 Y                 Z
Electronic contribution:      9.753066975      -2.889843011      -0.001750283
Nuclear contribution   :     -9.439682927       4.248110090       0.003941775
                        -----------------------------------------
Total Dipole Moment    :      0.313384048       1.358267079       0.002191492
                        -----------------------------------------
Magnitude (a.u.)       :      1.393952590
Magnitude (Debye)      :      3.543145905

VIBRATIONAL FREQUENCIES
-----------------------

Scaling factor for frequencies =  1.000000000  (already applied!)

     0:       0.00 cm**-1
     1:       0.00 cm**-1
     2:       0.00 cm**-1
     3:       0.00 cm**-1
     4:       0.00 cm**-1
     5:       0.00 cm**-1
     6:      43.41 cm**-1
     7:     104.27 cm**-1
     8:     138.47 cm**-1
     9:     188.48 cm**-1
    10:     292.77 cm**-1
    11:     338.17 cm**-1
    12:     397.06 cm**-1
    13:     423.57 cm**-1
    14:     464.50 cm**-1
    15:     501.46 cm**-1
    16:     572.96 cm**-1
    17:     597.24 cm**-1
    18:     632.67 cm**-1
    19:     695.51 cm**-1
    20:     744.23 cm**-1
    21:     828.72 cm**-1
    22:     847.85 cm**-1
    23:     859.70 cm**-1
    24:     966.33 cm**-1
    25:     979.28 cm**-1
    26:    1000.81 cm**-1
    27:    1023.23 cm**-1
    28:    1038.70 cm**-1
    29:    1096.50 cm**-1
    30:    1109.92 cm**-1
    31:    1159.28 cm**-1
    32:    1250.40 cm**-1
    33:    1288.29 cm**-1
    34:    1303.50 cm**-1
    35:    1366.30 cm**-1
    36:    1376.94 cm**-1
    37:    1434.82 cm**-1
    38:    1441.41 cm**-1
    39:    1445.30 cm**-1
    40:    1539.44 cm**-1
    41:    1651.11 cm**-1
    42:    1655.61 cm**-1
    43:    1748.98 cm**-1
    44:    3053.81 cm**-1
    45:    3121.29 cm**-1
    46:    3165.31 cm**-1
    47:    3209.36 cm**-1
    48:    3211.31 cm**-1
    49:    3222.27 cm**-1
    50:    3224.62 cm**-1

IR SPECTRUM
-----------

 Mode   freq       eps      Int      T**2         TX        TY        TZ
       cm**-1   L/(mol*cm) km/mol    a.u.
----------------------------------------------------------------------------
  6:     43.41   0.001189    6.01  0.008546  ( 0.000674  0.000553 -0.092438)
  7:    104.27   0.000420    2.12  0.001257  ( 0.000250 -0.000274  0.035456)
  8:    138.47   0.000037    0.19  0.000084  ( 0.000959 -0.000140  0.009122)
  9:    188.48   0.001757    8.88  0.002910  ( 0.051140 -0.017154  0.000115)
 10:    292.77   0.000154    0.78  0.000164  ( 0.000199  0.000129  0.012819)
 11:    338.17   0.000573    2.90  0.000529  ( 0.012448  0.019333  0.000216)
 12:    397.06   0.001375    6.95  0.001081  (-0.009593 -0.031444 -0.000036)
 13:    423.57   0.000002    0.01  0.000002  (-0.000054  0.000147  0.001248)
 14:    464.50   0.000448    2.26  0.000301  (-0.016426  0.005570  0.000234)
 15:    501.46   0.003274   16.55  0.002038  ( 0.000039 -0.000014 -0.045141)
 16:    572.96   0.014120   71.36  0.007690  (-0.085215  0.020709 -0.000026)
 17:    597.24   0.005329   26.93  0.002785  ( 0.000021 -0.000070  0.052769)
 18:    632.67   0.000055    0.28  0.000027  ( 0.000831  0.005144 -0.000178)
 19:    695.51   0.000349    1.77  0.000157  ( 0.007276  0.010191  0.000119)
 20:    744.23   0.000006    0.03  0.000003  (-0.000260 -0.000031  0.001621)
 21:    828.72   0.000842    4.26  0.000317  ( 0.000317 -0.000319 -0.017806)
 22:    847.85   0.008725   44.09  0.003211  ( 0.056583  0.002396 -0.001983)
 23:    859.70   0.023985  121.21  0.008706  ( 0.000901  0.000199  0.093304)
 24:    966.33   0.011357   57.39  0.003667  (-0.056556  0.021654 -0.000109)
 25:    979.28   0.000076    0.38  0.000024  ( 0.002747 -0.000729  0.004017)
 26:   1000.81   0.000068    0.34  0.000021  (-0.000315 -0.000585  0.004550)
 27:   1023.23   0.003649   18.44  0.001113  (-0.033218  0.003046  0.000262)
 28:   1038.70   0.000817    4.13  0.000246  ( 0.000285 -0.000125  0.015666)
 29:   1096.50   0.000362    1.83  0.000103  (-0.007891  0.006391  0.000031)
 30:   1109.92   0.004747   23.99  0.001335  ( 0.006874 -0.035880 -0.000095)
 31:   1159.28   0.017536   88.62  0.004721  (-0.068706  0.000072 -0.000210)
 32:   1250.40   0.027214  137.53  0.006792  (-0.082089 -0.007298  0.000017)
 33:   1288.29   0.073938  373.65  0.017910  (-0.133759  0.004306 -0.000099)
 34:   1303.50   0.007462   37.71  0.001786  (-0.039830  0.014140  0.000036)
 35:   1366.30   0.024415  123.38  0.005576  ( 0.050646 -0.054876 -0.000208)
 36:   1376.94   0.012517   63.25  0.002837  ( 0.051824 -0.012287 -0.000102)
 37:   1434.82   0.006344   32.06  0.001380  ( 0.024955  0.027506  0.000587)
 38:   1441.41   0.003452   17.45  0.000747  (-0.000531  0.001432 -0.027297)
 39:   1445.30   0.008608   43.50  0.001858  ( 0.040338 -0.015195 -0.000666)
 40:   1539.44   0.011926   60.27  0.002418  (-0.048785 -0.006125 -0.000016)
 41:   1651.11   0.033784  170.73  0.006385  ( 0.079730 -0.005318  0.000021)
 42:   1655.61   0.029053  146.82  0.005476  (-0.070294 -0.023129  0.000062)
 43:   1748.98   0.081663  412.69  0.014571  (-0.069099 -0.098976 -0.000167)
 44:   3053.81   0.000069    0.35  0.000007  (-0.002343 -0.001244  0.000023)
 45:   3121.29   0.000632    3.19  0.000063  ( 0.000002 -0.000171 -0.007947)
 46:   3165.31   0.003729   18.85  0.000368  (-0.019169 -0.000482 -0.000078)
 47:   3209.36   0.000171    0.86  0.000017  (-0.003886 -0.001222 -0.000091)
 48:   3211.31   0.000442    2.23  0.000043  ( 0.004622 -0.004642  0.000057)
 49:   3222.27   0.000686    3.47  0.000066  ( 0.007574 -0.003012 -0.000025)
 50:   3224.62   0.000457    2.31  0.000044  ( 0.006520  0.001325 -0.000066)

--------------------------
THERMOCHEMISTRY AT 298.15K
--------------------------

Temperature         ...   298.15 K
Pressure            ...     1.00 atm
Total Mass          ...   138.14 AMU
Quasi RRHO          ...     True
Cut-Off Frequency   ...     1.00 cm^-1

Throughout the following assumptions are being made:
  (1) The electronic state is orbitally nondegenerate
  (2) There are no thermally accessible electronically excited states
  (3) Hindered rotations indicated by low frequency modes are not
      treated as such but are treated as vibrations and this may
      cause some error
  (4) All equations used are the standard statistical mechanics
      equations for an ideal gas
  (5) All vibrations are strictly harmonic

freq.      43.41  E(vib)   ...       0.53
freq.     104.27  E(vib)   ...       0.46
freq.     138.47  E(vib)   ...       0.42
freq.     188.48  E(vib)   ...       0.36
freq.     292.77  E(vib)   ...       0.27
freq.     338.17  E(vib)   ...       0.24
freq.     397.06  E(vib)   ...       0.20
freq.     423.57  E(vib)   ...       0.18
freq.     464.50  E(vib)   ...       0.16
freq.     501.46  E(vib)   ...       0.14
freq.     572.96  E(vib)   ...       0.11
freq.     597.24  E(vib)   ...       0.10
freq.     632.67  E(vib)   ...       0.09
freq.     695.51  E(vib)   ...       0.07
freq.     744.23  E(vib)   ...       0.06
freq.     828.72  E(vib)   ...       0.04
freq.     847.85  E(vib)   ...       0.04
freq.     859.70  E(vib)   ...       0.04
freq.     966.33  E(vib)   ...       0.03
freq.     979.28  E(vib)   ...       0.03
freq.    1000.81  E(vib)   ...       0.02
freq.    1023.23  E(vib)   ...       0.02
freq.    1038.70  E(vib)   ...       0.02
freq.    1096.50  E(vib)   ...       0.02
freq.    1109.92  E(vib)   ...       0.02
freq.    1159.28  E(vib)   ...       0.01
freq.    1250.40  E(vib)   ...       0.01
freq.    1288.29  E(vib)   ...       0.01
freq.    1303.50  E(vib)   ...       0.01
freq.    1366.30  E(vib)   ...       0.01
freq.    1376.94  E(vib)   ...       0.01
freq.    1434.82  E(vib)   ...       0.00
freq.    1441.41  E(vib)   ...       0.00
freq.    1445.30  E(vib)   ...       0.00
freq.    1539.44  E(vib)   ...       0.00
freq.    1651.11  E(vib)   ...       0.00
freq.    1655.61  E(vib)   ...       0.00
freq.    1748.98  E(vib)   ...       0.00
freq.    3053.81  E(vib)   ...       0.00
freq.    3121.29  E(vib)   ...       0.00
freq.    3165.31  E(vib)   ...       0.00
freq.    3209.36  E(vib)   ...       0.00
freq.    3211.31  E(vib)   ...       0.00
freq.    3222.27  E(vib)   ...       0.00
freq.    3224.62  E(vib)   ...       0.00

------------
INNER ENERGY
------------

The inner energy is: U= E(el) + E(ZPE) + E(vib) + E(rot) + E(trans)
    E(el)   - is the total energy from the electronic structure calculation
              = E(kin-el) + E(nuc-el) + E(el-el) + E(nuc-nuc)
    E(ZPE)  - the the zero temperature vibrational energy from the frequency calculation
    E(vib)  - the the finite temperature correction to E(ZPE) due to population
              of excited vibrational states
    E(rot)  - is the rotational thermal energy
    E(trans)- is the translational thermal energy

Summary of contributions to the inner energy U:
Electronic energy                ...   -483.79335287 Eh
Zero point energy                ...      0.12929774 Eh      81.14 kcal/mol
Thermal vibrational correction   ...      0.00592153 Eh       3.72 kcal/mol
Thermal rotational correction    ...      0.00141627 Eh       0.89 kcal/mol
Thermal translational correction ...      0.00141627 Eh       0.89 kcal/mol
-----------------------------------------------------------------------
Total thermal energy                   -483.65530106 Eh

Summary of corrections to the electronic energy:
(perhaps to be used in another calculation)
Total thermal correction                  0.00875407 Eh       5.49 kcal/mol
Non-thermal (ZPE) correction              0.12929774 Eh      81.14 kcal/mol
-----------------------------------------------------------------------
Total correction                          0.13805181 Eh      86.63 kcal/mol

--------
ENTHALPY
--------

The enthalpy is H = U + kB*T
                kB is Boltzmann's constant
Total thermal energy              ...   -483.65530106 Eh
Thermal Enthalpy correction       ...      0.00094421 Eh       0.59 kcal/mol
-----------------------------------------------------------------------
Total Enthalpy                    ...   -483.65435685 Eh

Note: Only C1 symmetry has been detected, increase convergence thresholds
      if your molecule has a higher symmetry. Symmetry factor of 1.0 is
      used for the rotational entropy correction.

Note: Rotational entropy computed according to Herzberg
Infrared and Raman Spectra, Chapter V,1, Van Nostrand Reinhold, 1945
Point Group:  C1, Symmetry Number:   1
Rotational constants in cm-1:     0.123439     0.026093     0.021626

Vibrational entropy computed according to the QRRHO of S. Grimme
Chem.Eur.J. 2012 18 9955 using a reference frequency of 100.0 cm-1

-------
ENTROPY
-------

The entropy contributions are T*S = T*(S(el)+S(vib)+S(rot)+S(trans))
     S(el)   - electronic entropy
     S(vib)  - vibrational entropy
     S(rot)  - rotational entropy
     S(trans)- translational entropy
The entropies will be listed as multiplied by the temperature to get
units of energy

Electronic entropy                ...      0.00000000 Eh      0.00 kcal/mol
Vibrational entropy               ...      0.01002001 Eh      6.29 kcal/mol
Rotational entropy                ...      0.01402965 Eh      8.80 kcal/mol
Translational entropy             ...      0.01932885 Eh     12.13 kcal/mol
-----------------------------------------------------------------------
Final entropy term                ...      0.04337850 Eh     27.22 kcal/mol

In case the symmetry of your molecule has not been determined correctly
or in case you have a reason to use a different symmetry number we print
out the resulting rotational entropy values for sn=1,12:

 non-linear molecules -----------------------------------
|  sn= 1 | S(rot)=       0.01402965 Eh      8.80 kcal/mol|
|  sn= 2 | S(rot)=       0.01337519 Eh      8.39 kcal/mol|
|  sn= 3 | S(rot)=       0.01299236 Eh      8.15 kcal/mol|
|  sn= 4 | S(rot)=       0.01272073 Eh      7.98 kcal/mol|
|  sn= 5 | S(rot)=       0.01251005 Eh      7.85 kcal/mol|
|  sn= 6 | S(rot)=       0.01233790 Eh      7.74 kcal/mol|
|  sn= 7 | S(rot)=       0.01219236 Eh      7.65 kcal/mol|
|  sn= 8 | S(rot)=       0.01206628 Eh      7.57 kcal/mol|
|  sn= 9 | S(rot)=       0.01195507 Eh      7.50 kcal/mol|
|  sn=10 | S(rot)=       0.01185559 Eh      7.44 kcal/mol|
|  sn=11 | S(rot)=       0.01176560 Eh      7.38 kcal/mol|
|  sn=12 | S(rot)=       0.01168345 Eh      7.33 kcal/mol|
 linear molecules ---------------------------------------
|  Dinfh | S(rot)=       0.00894567 Eh      5.61 kcal/mol|
|  Cinfv | S(rot)=       0.00960013 Eh      6.02 kcal/mol|

                             ****ORCA TERMINATED NORMALLY****
TOTAL RUN TIME: 0 days 0 hours 31 minutes 32 seconds 909 msec
