                         Program Version 6.0.0  -   RELEASE  -
|  1> !PBE0 def2-SV(p) Opt Freq d3 TightSCF SlowConv RIJCOSX defgrid2
|  2>
|  3> %pal
|  4> nprocs 4
|  5> end
|  6>
|  7> %scf
|  8> MaxIter 1500
|  9> end
| 10>
| 11> %maxcore 3000
| 12>
| 13>
| 14>
| 15> * xyz 0 1
| 16> C     1.7058865    1.0420805   -0.0080108
| 17> C     0.5538912    1.7979150    0.0008623
| 18> C    -0.6998878    1.2050092    0.0035227
| 19> C    -0.7915380   -0.1825371   -0.0020178
| 20> C     0.3679642   -0.9514747   -0.0123742
| 21> C     1.6243224   -0.3543254   -0.0123896
| 22> N     2.7654441   -1.1247462    0.0532171
| 23> H     2.6688691   -2.0876194   -0.2250549
| 24> H     3.6194010   -0.6820368   -0.2445834
| 25> H     0.2720096   -2.0267273   -0.0167429
| 26> O    -1.9632911   -0.8894550   -0.0043436
| 27> C    -3.1793954   -0.1757946    0.0079798
| 28> H    -3.9622994   -0.9324417    0.0085808
| 29> H    -3.2830375    0.4543275   -0.8812130
| 30> H    -3.2711030    0.4435390    0.9059022
| 31> H    -1.5805282    1.8262268    0.0084854
| 32> H     0.6234549    2.8762400    0.0027553
| 33> H     2.6744821    1.5196989   -0.0094256
| 34> *
| 35>
| 36>                          ****END OF INPUT****
 Total Charge           Charge          ....    0
 Multiplicity           Mult            ....    1
 Number of Electrons    NEL             ....   66
Dispersion correction           -0.015108588
FINAL SINGLE POINT ENERGY      -401.362013165692
Dispersion correction             ... done (  0.1 sec)
Dispersion correction           -0.015091730
FINAL SINGLE POINT ENERGY      -401.363719558127
Dispersion correction             ... done (  0.1 sec)
Dispersion correction           -0.015082478
FINAL SINGLE POINT ENERGY      -401.363810945264
Dispersion correction             ... done (  0.1 sec)
Dispersion correction           -0.015080484
FINAL SINGLE POINT ENERGY      -401.363832538827
Dispersion correction             ... done (  0.1 sec)
Dispersion correction           -0.015080588
FINAL SINGLE POINT ENERGY      -401.363834074392
Dispersion correction             ... done (  0.1 sec)
                    ***********************HURRAY********************

CARTESIAN COORDINATES (ANGSTROEM)
---------------------------------
  C      1.707949    1.044676   -0.000821
  C      0.545061    1.800416    0.000927
  C     -0.719957    1.207894    0.002667
  C     -0.799280   -0.189589    0.002034
  C      0.365552   -0.962928   -0.001277
  C      1.628536   -0.362108   -0.000337
  N      2.775366   -1.130725    0.046053
  H      2.687827   -2.097749   -0.243348
  H      3.631536   -0.686983   -0.264464
  H      0.260130   -2.051176    0.001192
  O     -1.958878   -0.882926    0.001115
  C     -3.164732   -0.177336    0.005177
  H     -3.967632   -0.930122    0.005650
  H     -3.271466    0.460468   -0.893701
  H     -3.267162    0.456990    0.906936
  H     -1.613602    1.832880    0.003530
  H      0.618714    2.892544    0.000077
  H      2.686684    1.533653    0.003739

 Multiplicity           Mult            ....    1
 Number of Electrons    NEL             ....   66
 Basis Dimension        Dim             ....  144

ORBITAL ENERGIES
----------------

  NO   OCC          E(Eh)            E(eV)
   0   2.0000     -19.235186      -523.4160
   1   2.0000     -14.389225      -391.5507
   2   2.0000     -10.286994      -279.9233
   3   2.0000     -10.276718      -279.6437
   4   2.0000     -10.271876      -279.5120
   5   2.0000     -10.229205      -278.3508
   6   2.0000     -10.216000      -277.9915
   7   2.0000     -10.215157      -277.9686
   8   2.0000     -10.213601      -277.9262
   9   2.0000      -1.086809       -29.5736
  10   2.0000      -0.935396       -25.4534
  11   2.0000      -0.847694       -23.0669
  12   2.0000      -0.768107       -20.9013
  13   2.0000      -0.736048       -20.0289
  14   2.0000      -0.703477       -19.1426
  15   2.0000      -0.621973       -16.9247
  16   2.0000      -0.602397       -16.3920
  17   2.0000      -0.552823       -15.0431
  18   2.0000      -0.533191       -14.5089
  19   2.0000      -0.494551       -13.4574
  20   2.0000      -0.482926       -13.1411
  21   2.0000      -0.481783       -13.1100
  22   2.0000      -0.473279       -12.8786
  23   2.0000      -0.428633       -11.6637
  24   2.0000      -0.418833       -11.3970
  25   2.0000      -0.398883       -10.8542
  26   2.0000      -0.379303       -10.3213
  27   2.0000      -0.371116       -10.0986
  28   2.0000      -0.352389        -9.5890
  29   2.0000      -0.333456        -9.0738
  30   2.0000      -0.304701        -8.2913
  31   2.0000      -0.229847        -6.2544
  32   2.0000      -0.208769        -5.6809
  33   0.0000       0.012682         0.3451
  34   0.0000       0.031800         0.8653
  35   0.0000       0.069975         1.9041
  36   0.0000       0.081987         2.2310
  37   0.0000       0.097369         2.6495

MULLIKEN ATOMIC CHARGES
-----------------------
   0 C :   -0.156146
   1 C :   -0.094120
   2 C :   -0.236319
   3 C :    0.272750
   4 C :   -0.225418
   5 C :    0.173378
   6 N :   -0.434429
   7 H :    0.245989
   8 H :    0.245640
   9 H :    0.064348
  10 O :   -0.330953
  11 C :   -0.156688
  12 H :    0.144043
  13 H :    0.127253
  14 H :    0.128107
  15 H :    0.078366
  16 H :    0.090485
  17 H :    0.063715
Sum of atomic charges:   -0.0000000

LOEWDIN ATOMIC CHARGES
----------------------
   0 C :   -0.192075
   1 C :   -0.107359
   2 C :   -0.220413
   3 C :    0.051222
   4 C :   -0.196686
   5 C :    0.012894
   6 N :   -0.344783
   7 H :    0.231808
   8 H :    0.231479
   9 H :    0.130323
  10 O :   -0.112989
  11 C :   -0.202530
  12 H :    0.122420
  13 H :    0.109141
  14 H :    0.109604
  15 H :    0.128584
  16 H :    0.127200
  17 H :    0.122160

  Mayer bond orders larger than 0.100000
B(  0-C ,  1-C ) :   1.4300 B(  0-C ,  5-C ) :   1.3107 B(  0-C , 17-H ) :   0.9649
B(  1-C ,  2-C ) :   1.3528 B(  1-C , 16-H ) :   0.9572 B(  2-C ,  3-C ) :   1.3191
B(  2-C , 15-H ) :   0.9636 B(  3-C ,  4-C ) :   1.3723 B(  3-C , 10-O ) :   1.1011
B(  4-C ,  5-C ) :   1.3338 B(  4-C ,  9-H ) :   0.9635 B(  5-C ,  6-N ) :   1.2000
B(  6-N ,  7-H ) :   0.8815 B(  6-N ,  8-H ) :   0.8809 B( 10-O , 11-C ) :   0.9669
B( 11-C , 12-H ) :   0.9575 B( 11-C , 13-H ) :   0.9416 B( 11-C , 14-H ) :   0.9416

Dispersion correction           -0.015080841
FINAL SINGLE POINT ENERGY      -401.363834304977

DIPOLE MOMENT
-------------

Method             : SCF
Type of density    : Electron Density
Multiplicity       :   1
Irrep              :   0
Energy             :  -401.3487534641742513 Eh
Relativity type    :
Basis              : AO
                                X                 Y                 Z
Electronic contribution:      2.271892250      -1.345436199       0.114268100
Nuclear contribution   :     -2.112843888       1.316658506      -0.469607068
                        -----------------------------------------
Total Dipole Moment    :      0.159048362      -0.028777693      -0.355338968
                        -----------------------------------------
Magnitude (a.u.)       :      0.390372027
Magnitude (Debye)      :      0.992246837

VIBRATIONAL FREQUENCIES
-----------------------

Scaling factor for frequencies =  1.000000000  (already applied!)

     0:       0.00 cm**-1
     1:       0.00 cm**-1
     2:       0.00 cm**-1
     3:       0.00 cm**-1
     4:       0.00 cm**-1
     5:       0.00 cm**-1
     6:      90.77 cm**-1
     7:     211.99 cm**-1
     8:     231.21 cm**-1
     9:     241.52 cm**-1
    10:     284.81 cm**-1
    11:     337.28 cm**-1
    12:     362.61 cm**-1
    13:     462.71 cm**-1
    14:     470.03 cm**-1
    15:     493.40 cm**-1
    16:     536.07 cm**-1
    17:     589.77 cm**-1
    18:     651.70 cm**-1
    19:     707.59 cm**-1
    20:     760.47 cm**-1
    21:     773.01 cm**-1
    22:     852.80 cm**-1
    23:     869.54 cm**-1
    24:     970.03 cm**-1
    25:     977.96 cm**-1
    26:    1010.36 cm**-1
    27:    1092.60 cm**-1
    28:    1121.61 cm**-1
    29:    1134.12 cm**-1
    30:    1182.95 cm**-1
    31:    1185.57 cm**-1
    32:    1215.09 cm**-1
    33:    1274.15 cm**-1
    34:    1329.12 cm**-1
    35:    1381.08 cm**-1
    36:    1426.90 cm**-1
    37:    1480.25 cm**-1
    38:    1480.37 cm**-1
    39:    1498.29 cm**-1
    40:    1538.84 cm**-1
    41:    1561.83 cm**-1
    42:    1657.25 cm**-1
    43:    1673.66 cm**-1
    44:    1717.92 cm**-1
    45:    3008.90 cm**-1
    46:    3086.62 cm**-1
    47:    3159.52 cm**-1
    48:    3188.75 cm**-1
    49:    3204.86 cm**-1
    50:    3206.95 cm**-1
    51:    3239.71 cm**-1
    52:    3569.48 cm**-1
    53:    3667.98 cm**-1

IR SPECTRUM
-----------

 Mode   freq       eps      Int      T**2         TX        TY        TZ
       cm**-1   L/(mol*cm) km/mol    a.u.
----------------------------------------------------------------------------
  6:     90.77   0.001308    6.61  0.004497  (-0.009339 -0.000799 -0.066402)
  7:    211.99   0.000303    1.53  0.000445  (-0.002569  0.011175 -0.017715)
  8:    231.21   0.000849    4.29  0.001146  ( 0.018868 -0.007333  0.027138)
  9:    241.52   0.000853    4.31  0.001102  (-0.020847 -0.025836 -0.000482)
 10:    284.81   0.000163    0.82  0.000179  ( 0.001189  0.005410 -0.012158)
 11:    337.28   0.003057   15.45  0.002828  ( 0.035774  0.038979  0.005403)
 12:    362.61   0.000263    1.33  0.000226  ( 0.014258  0.003860  0.002843)
 13:    462.71   0.019243   97.25  0.012978  (-0.061726  0.042272 -0.085914)
 14:    470.03   0.000929    4.69  0.000617  (-0.019425  0.014457 -0.005501)
 15:    493.40   0.048255  243.86  0.030520  (-0.117991  0.067155 -0.109949)
 16:    536.07   0.000489    2.47  0.000285  (-0.007316  0.009083 -0.012196)
 17:    589.77   0.001505    7.60  0.000796  (-0.021421 -0.018367 -0.000021)
 18:    651.70   0.001002    5.06  0.000480  (-0.015170  0.011010 -0.011333)
 19:    707.59   0.003680   18.60  0.001623  ( 0.002563 -0.001759 -0.040165)
 20:    760.47   0.000895    4.52  0.000367  (-0.014310 -0.012560  0.002140)
 21:    773.01   0.006401   32.35  0.002584  ( 0.005712  0.000631  0.050509)
 22:    852.80   0.000446    2.26  0.000163  ( 0.004904 -0.001689  0.011681)
 23:    869.54   0.007933   40.09  0.002847  ( 0.005194 -0.003264  0.053005)
 24:    970.03   0.001759    8.89  0.000566  ( 0.021655  0.009748 -0.001385)
 25:    977.96   0.000034    0.17  0.000011  (-0.000755  0.000335 -0.003172)
 26:   1010.36   0.000329    1.66  0.000102  (-0.007771  0.005802  0.002767)
 27:   1092.60   0.000449    2.27  0.000128  (-0.010871 -0.003183  0.000007)
 28:   1121.61   0.003577   18.08  0.000995  ( 0.022651 -0.021952  0.000566)
 29:   1134.12   0.000331    1.67  0.000091  (-0.003628 -0.008821  0.000137)
 30:   1182.95   0.006506   32.88  0.001716  ( 0.041098 -0.005191 -0.000549)
 31:   1185.57   0.000114    0.58  0.000030  (-0.000316  0.000065  0.005478)
 32:   1215.09   0.002167   10.95  0.000557  ( 0.022076 -0.008324 -0.000079)
 33:   1274.15   0.038022  192.15  0.009312  (-0.095399  0.014539 -0.000194)
 34:   1329.12   0.009357   47.29  0.002197  ( 0.046298  0.007308 -0.000062)
 35:   1381.08   0.006799   34.36  0.001536  (-0.027394 -0.027937  0.002309)
 36:   1426.90   0.012213   61.72  0.002671  (-0.048283 -0.018421  0.000662)
 37:   1480.25   0.001520    7.68  0.000320  (-0.016690 -0.002085 -0.006121)
 38:   1480.37   0.001628    8.23  0.000343  (-0.005437 -0.000692  0.017697)
 39:   1498.29   0.009851   49.78  0.002052  ( 0.043028  0.014133 -0.000734)
 40:   1538.84   0.002217   11.20  0.000450  (-0.007244 -0.019707  0.002955)
 41:   1561.83   0.024440  123.51  0.004883  ( 0.069829 -0.002350  0.001255)
 42:   1657.25   0.008428   42.59  0.001587  (-0.035165  0.010847  0.015257)
 43:   1673.66   0.017362   87.74  0.003237  ( 0.020796  0.052722  0.005012)
 44:   1717.92   0.066068  333.88  0.012001  ( 0.104030 -0.034136 -0.003726)
 45:   3008.90   0.011461   57.92  0.001189  ( 0.032571 -0.011306  0.000137)
 46:   3086.62   0.006826   34.50  0.000690  (-0.000069 -0.000108  0.026271)
 47:   3159.52   0.003719   18.79  0.000367  ( 0.015059  0.011854 -0.000013)
 48:   3188.75   0.001311    6.63  0.000128  ( 0.009279 -0.006496 -0.000069)
 49:   3204.86   0.003251   16.43  0.000317  ( 0.007307  0.016223  0.000070)
 50:   3206.95   0.000992    5.01  0.000096  (-0.009521 -0.002414  0.000092)
 51:   3239.71   0.000732    3.70  0.000071  (-0.007548  0.003678  0.000029)
 52:   3569.48   0.007275   36.76  0.000636  (-0.019903  0.012337  0.009364)
 53:   3667.98   0.004539   22.94  0.000386  ( 0.011136  0.016188 -0.000344)

--------------------------
THERMOCHEMISTRY AT 298.15K
--------------------------

Temperature         ...   298.15 K
Pressure            ...     1.00 atm
Total Mass          ...   123.15 AMU
Quasi RRHO          ...     True
Cut-Off Frequency   ...     1.00 cm^-1

Throughout the following assumptions are being made:
  (1) The electronic state is orbitally nondegenerate
  (2) There are no thermally accessible electronically excited states
  (3) Hindered rotations indicated by low frequency modes are not
      treated as such but are treated as vibrations and this may
      cause some error
  (4) All equations used are the standard statistical mechanics
      equations for an ideal gas
  (5) All vibrations are strictly harmonic

freq.      90.77  E(vib)   ...       0.47
freq.     211.99  E(vib)   ...       0.34
freq.     231.21  E(vib)   ...       0.32
freq.     241.52  E(vib)   ...       0.31
freq.     284.81  E(vib)   ...       0.28
freq.     337.28  E(vib)   ...       0.24
freq.     362.61  E(vib)   ...       0.22
freq.     462.71  E(vib)   ...       0.16
freq.     470.03  E(vib)   ...       0.16
freq.     493.40  E(vib)   ...       0.14
freq.     536.07  E(vib)   ...       0.12
freq.     589.77  E(vib)   ...       0.10
freq.     651.70  E(vib)   ...       0.08
freq.     707.59  E(vib)   ...       0.07
freq.     760.47  E(vib)   ...       0.06
freq.     773.01  E(vib)   ...       0.05
freq.     852.80  E(vib)   ...       0.04
freq.     869.54  E(vib)   ...       0.04
freq.     970.03  E(vib)   ...       0.03
freq.     977.96  E(vib)   ...       0.03
freq.    1010.36  E(vib)   ...       0.02
freq.    1092.60  E(vib)   ...       0.02
freq.    1121.61  E(vib)   ...       0.01
freq.    1134.12  E(vib)   ...       0.01
freq.    1182.95  E(vib)   ...       0.01
freq.    1185.57  E(vib)   ...       0.01
freq.    1215.09  E(vib)   ...       0.01
freq.    1274.15  E(vib)   ...       0.01
freq.    1329.12  E(vib)   ...       0.01
freq.    1381.08  E(vib)   ...       0.01
freq.    1426.90  E(vib)   ...       0.00
freq.    1480.25  E(vib)   ...       0.00
freq.    1480.37  E(vib)   ...       0.00
freq.    1498.29  E(vib)   ...       0.00
freq.    1538.84  E(vib)   ...       0.00
freq.    1561.83  E(vib)   ...       0.00
freq.    1657.25  E(vib)   ...       0.00
freq.    1673.66  E(vib)   ...       0.00
freq.    1717.92  E(vib)   ...       0.00
freq.    3008.90  E(vib)   ...       0.00
freq.    3086.62  E(vib)   ...       0.00
freq.    3159.52  E(vib)   ...       0.00
freq.    3188.75  E(vib)   ...       0.00
freq.    3204.86  E(vib)   ...       0.00
freq.    3206.95  E(vib)   ...       0.00
freq.    3239.71  E(vib)   ...       0.00
freq.    3569.48  E(vib)   ...       0.00
freq.    3667.98  E(vib)   ...       0.00

------------
INNER ENERGY
------------

The inner energy is: U= E(el) + E(ZPE) + E(vib) + E(rot) + E(trans)
    E(el)   - is the total energy from the electronic structure calculation
              = E(kin-el) + E(nuc-el) + E(el-el) + E(nuc-nuc)
    E(ZPE)  - the the zero temperature vibrational energy from the frequency calculation
    E(vib)  - the the finite temperature correction to E(ZPE) due to population
              of excited vibrational states
    E(rot)  - is the rotational thermal energy
    E(trans)- is the translational thermal energy

Summary of contributions to the inner energy U:
Electronic energy                ...   -401.36383430 Eh
Zero point energy                ...      0.15074639 Eh      94.59 kcal/mol
Thermal vibrational correction   ...      0.00541510 Eh       3.40 kcal/mol
Thermal rotational correction    ...      0.00141627 Eh       0.89 kcal/mol
Thermal translational correction ...      0.00141627 Eh       0.89 kcal/mol
-----------------------------------------------------------------------
Total thermal energy                   -401.20484027 Eh

Summary of corrections to the electronic energy:
(perhaps to be used in another calculation)
Total thermal correction                  0.00824764 Eh       5.18 kcal/mol
Non-thermal (ZPE) correction              0.15074639 Eh      94.59 kcal/mol
-----------------------------------------------------------------------
Total correction                          0.15899403 Eh      99.77 kcal/mol

--------
ENTHALPY
--------

The enthalpy is H = U + kB*T
                kB is Boltzmann's constant
Total thermal energy              ...   -401.20484027 Eh
Thermal Enthalpy correction       ...      0.00094421 Eh       0.59 kcal/mol
-----------------------------------------------------------------------
Total Enthalpy                    ...   -401.20389606 Eh

Note: Only C1 symmetry has been detected, increase convergence thresholds
      if your molecule has a higher symmetry. Symmetry factor of 1.0 is
      used for the rotational entropy correction.

Note: Rotational entropy computed according to Herzberg
Infrared and Raman Spectra, Chapter V,1, Van Nostrand Reinhold, 1945
Point Group:  C1, Symmetry Number:   1
Rotational constants in cm-1:     0.120502     0.037824     0.028965

Vibrational entropy computed according to the QRRHO of S. Grimme
Chem.Eur.J. 2012 18 9955 using a reference frequency of 100.0 cm-1

-------
ENTROPY
-------

The entropy contributions are T*S = T*(S(el)+S(vib)+S(rot)+S(trans))
     S(el)   - electronic entropy
     S(vib)  - vibrational entropy
     S(rot)  - rotational entropy
     S(trans)- translational entropy
The entropies will be listed as multiplied by the temperature to get
units of energy

Electronic entropy                ...      0.00000000 Eh      0.00 kcal/mol
Vibrational entropy               ...      0.00866168 Eh      5.44 kcal/mol
Rotational entropy                ...      0.01372779 Eh      8.61 kcal/mol
Translational entropy             ...      0.01916621 Eh     12.03 kcal/mol
-----------------------------------------------------------------------
Final entropy term                ...      0.04155568 Eh     26.08 kcal/mol

In case the symmetry of your molecule has not been determined correctly
or in case you have a reason to use a different symmetry number we print
out the resulting rotational entropy values for sn=1,12:

 non-linear molecules -----------------------------------
|  sn= 1 | S(rot)=       0.01372779 Eh      8.61 kcal/mol|
|  sn= 2 | S(rot)=       0.01307334 Eh      8.20 kcal/mol|
|  sn= 3 | S(rot)=       0.01269050 Eh      7.96 kcal/mol|
|  sn= 4 | S(rot)=       0.01241888 Eh      7.79 kcal/mol|
|  sn= 5 | S(rot)=       0.01220819 Eh      7.66 kcal/mol|
|  sn= 6 | S(rot)=       0.01203605 Eh      7.55 kcal/mol|
|  sn= 7 | S(rot)=       0.01189050 Eh      7.46 kcal/mol|
|  sn= 8 | S(rot)=       0.01176442 Eh      7.38 kcal/mol|
|  sn= 9 | S(rot)=       0.01165321 Eh      7.31 kcal/mol|
|  sn=10 | S(rot)=       0.01155373 Eh      7.25 kcal/mol|
|  sn=11 | S(rot)=       0.01146374 Eh      7.19 kcal/mol|
|  sn=12 | S(rot)=       0.01138159 Eh      7.14 kcal/mol|

                             ****ORCA TERMINATED NORMALLY****
TOTAL RUN TIME: 0 days 0 hours 7 minutes 18 seconds 930 msec
