                         Program Version 6.0.0  -   RELEASE  -
|  1> !TPSSh aug-cc-pVTZ d3 TightSCF SlowConv RIJCOSX defgrid2
|  2>
|  3> %pal
|  4> nprocs 4
|  5> end
|  6>
|  7> %scf
|  8> MaxIter 1500
|  9> end
| 10>
| 11> %maxcore 3000
| 12>
| 13> !CPCM
| 14> %cpcm smd true
| 15> SMDsolvent "MeCN"
| 16> surfacetype gepol_ses
| 17> rsolv 2.19
| 18> end
| 19>
| 20> * xyz 0 1
| 21> C           4.13966964128756      1.20735034805801      0.00018109983423
| 22> C           4.83985938717942      0.00012909944918     -0.00011080706815
| 23> C           4.13977283020272     -1.20715138721907     -0.00030540880609
| 24> C           2.74896974902717     -1.21166073629652     -0.00020947111922
| 25> C           2.03371707188302      0.00000535590610      0.00007936492405
| 26> C           2.74886648576486      1.21173557633403      0.00027305110837
| 27> H           2.19700573398250      2.15507580320245      0.00050096603306
| 28> C           0.60926575165477     -0.00003899905682      0.00017121398327
| 29> C          -0.60926677013399     -0.00011851011831      0.00032726130009
| 30> C          -2.03371710027454     -0.00005107798655      0.00019494163829
| 31> C          -2.74898416366441     -1.21170960248422      0.00036780306847
| 32> C          -4.13978643826222     -1.20718728138590      0.00021041667338
| 33> C          -4.83985863236214      0.00010214935927     -0.00011716793755
| 34> C          -4.13965447812715      1.20731478629068     -0.00028483680888
| 35> C          -2.74885097774675      1.21168640857502     -0.00012607465811
| 36> H          -2.19698244285642      2.15502223469334     -0.00025694123114
| 37> H          -4.68454348342066      2.15603211713716     -0.00054208004626
| 38> H          -5.93383287072922      0.00016036307699     -0.00023936958784
| 39> H          -4.68478251870500     -2.15584320000508      0.00034538941345
| 40> H          -2.19721645884462     -2.15510431633366      0.00062541194967
| 41> H           2.19719446528860     -2.15505107012925     -0.00036096765238
| 42> H           4.68475743011085     -2.15581340727935     -0.00053331434756
| 43> H           5.93383355030704      0.00017426906263     -0.00018342642694
| 44> H           4.68456993843861      2.15606107714988      0.00033824576380
| 45> *
| 46>
| 47>                          ****END OF INPUT****

CARTESIAN COORDINATES (ANGSTROEM)
---------------------------------
  C      4.139670    1.207350    0.000181
  C      4.839859    0.000129   -0.000111
  C      4.139773   -1.207151   -0.000305
  C      2.748970   -1.211661   -0.000209
  C      2.033717    0.000005    0.000079
  C      2.748866    1.211736    0.000273
  H      2.197006    2.155076    0.000501
  C      0.609266   -0.000039    0.000171
  C     -0.609267   -0.000119    0.000327
  C     -2.033717   -0.000051    0.000195
  C     -2.748984   -1.211710    0.000368
  C     -4.139786   -1.207187    0.000210
  C     -4.839859    0.000102   -0.000117
  C     -4.139654    1.207315   -0.000285
  C     -2.748851    1.211686   -0.000126
  H     -2.196982    2.155022   -0.000257
  H     -4.684543    2.156032   -0.000542
  H     -5.933833    0.000160   -0.000239
  H     -4.684783   -2.155843    0.000345
  H     -2.197216   -2.155104    0.000625
  H      2.197194   -2.155051   -0.000361
  H      4.684757   -2.155813   -0.000533
  H      5.933834    0.000174   -0.000183
  H      4.684570    2.156061    0.000338

 Total Charge           Charge          ....    0
 Multiplicity           Mult            ....    1
 Number of Electrons    NEL             ....   94
 Basis Dimension        Dim             ....  874

ORBITAL ENERGIES
----------------

  NO   OCC          E(Eh)            E(eV)
   0   2.0000     -10.148301      -276.1493
   1   2.0000     -10.148296      -276.1492
   2   2.0000     -10.126009      -275.5427
   3   2.0000     -10.126004      -275.5426
   4   2.0000     -10.126002      -275.5425
   5   2.0000     -10.126000      -275.5425
   6   2.0000     -10.123462      -275.4734
   7   2.0000     -10.122335      -275.4427
   8   2.0000     -10.122333      -275.4427
   9   2.0000     -10.121947      -275.4322
  10   2.0000     -10.121946      -275.4322
  11   2.0000     -10.121638      -275.4238
  12   2.0000     -10.121634      -275.4237
  13   2.0000     -10.121447      -275.4186
  14   2.0000      -0.848747       -23.0956
  15   2.0000      -0.845410       -23.0048
  16   2.0000      -0.776420       -21.1275
  17   2.0000      -0.750849       -20.4316
  18   2.0000      -0.732651       -19.9364
  19   2.0000      -0.732503       -19.9324
  20   2.0000      -0.700625       -19.0650
  21   2.0000      -0.618753       -16.8371
  22   2.0000      -0.592070       -16.1110
  23   2.0000      -0.590740       -16.0749
  24   2.0000      -0.589801       -16.0493
  25   2.0000      -0.528441       -14.3796
  26   2.0000      -0.511735       -13.9250
  27   2.0000      -0.468895       -12.7593
  28   2.0000      -0.457165       -12.4401
  29   2.0000      -0.442819       -12.0497
  30   2.0000      -0.437921       -11.9164
  31   2.0000      -0.420223       -11.4349
  32   2.0000      -0.413970       -11.2647
  33   2.0000      -0.405468       -11.0334
  34   2.0000      -0.405203       -11.0261
  35   2.0000      -0.380781       -10.3616
  36   2.0000      -0.368548       -10.0287
  37   2.0000      -0.343650        -9.3512
  38   2.0000      -0.339320        -9.2334
  39   2.0000      -0.334512        -9.1025
  40   2.0000      -0.330437        -8.9916
  41   2.0000      -0.314240        -8.5509
  42   2.0000      -0.268567        -7.3081
  43   2.0000      -0.265864        -7.2345
  44   2.0000      -0.253196        -6.8898
  45   2.0000      -0.253080        -6.8867
  46   2.0000      -0.213316        -5.8046
  47   0.0000      -0.070820        -1.9271
  48   0.0000      -0.030753        -0.8368
  49   0.0000      -0.028973        -0.7884
  50   0.0000      -0.018193        -0.4951
  51   0.0000      -0.006686        -0.1819

MULLIKEN ATOMIC CHARGES
-----------------------
   0 C :   -0.709210
   1 C :    0.097461
   2 C :   -0.709141
   3 C :   -0.867350
   4 C :    1.277632
   5 C :   -0.853886
   6 H :   -0.426652
   7 C :    1.231437
   8 C :    1.228229
   9 C :    1.307928
  10 C :   -0.839216
  11 C :   -0.686953
  12 C :    0.122442
  13 C :   -0.659982
  14 C :   -0.868564
  15 H :   -0.477782
  16 H :    0.443028
  17 H :    0.412155
  18 H :    0.407845
  19 H :   -0.396813
  20 H :   -0.439363
  21 H :    0.451039
  22 H :    0.479092
  23 H :    0.476622
Sum of atomic charges:    0.0000000

LOEWDIN ATOMIC CHARGES
----------------------
   0 C :    0.193517
   1 C :    0.191249
   2 C :    0.193511
   3 C :    0.194610
   4 C :   -0.218801
   5 C :    0.194616
   6 H :   -0.163576
   7 C :    0.083860
   8 C :    0.083853
   9 C :   -0.218795
  10 C :    0.194617
  11 C :    0.193525
  12 C :    0.191255
  13 C :    0.193527
  14 C :    0.194616
  15 H :   -0.163594
  16 H :   -0.168247
  17 H :   -0.168946
  18 H :   -0.168248
  19 H :   -0.163570
  20 H :   -0.163585
  21 H :   -0.168242
  22 H :   -0.168923
  23 H :   -0.168230

  Mayer bond orders larger than 0.100000
B(  0-C ,  1-C ) :   1.3207 B(  0-C ,  2-C ) :   0.2831 B(  0-C ,  3-C ) :   0.2106
B(  0-C ,  4-C ) :   0.2055 B(  0-C ,  5-C ) :   1.5455 B(  0-C ,  7-C ) :   0.3869
B(  0-C ,  8-C ) :  -0.7175 B(  0-C , 23-H ) :   0.3726 B(  1-C ,  2-C ) :   1.3200
B(  1-C ,  3-C ) :  -0.3397 B(  1-C ,  4-C ) :  -0.3478 B(  1-C ,  5-C ) :  -0.3205
B(  1-C ,  6-H ) :  -0.1285 B(  1-C ,  8-C ) :   0.7642 B(  1-C , 20-H ) :  -0.1359
B(  1-C , 21-H ) :   0.2040 B(  1-C , 22-H ) :   0.5315 B(  1-C , 23-H ) :   0.1959
B(  2-C ,  3-C ) :   1.5490 B(  2-C ,  4-C ) :   0.1851 B(  2-C ,  5-C ) :   0.2075
B(  2-C ,  7-C ) :   0.4042 B(  2-C ,  8-C ) :  -0.7360 B(  2-C , 21-H ) :   0.4215
B(  3-C ,  4-C ) :   0.4041 B(  3-C ,  5-C ) :  -0.6488 B(  3-C ,  6-H ) :   0.2689
B(  3-C ,  7-C ) :   0.1062 B(  3-C , 20-H ) :   2.1554 B(  3-C , 21-H ) :  -0.2483
B(  4-C ,  5-C ) :   0.4193 B(  4-C ,  6-H ) :   0.2151 B(  4-C ,  8-C ) :  -0.1656
B(  4-C ,  9-C ) :   0.2342 B(  4-C , 15-H ) :  -0.1100 B(  4-C , 20-H ) :   0.2185
B(  4-C , 21-H ) :   0.1626 B(  4-C , 23-H ) :   0.1614 B(  5-C ,  6-H ) :   2.0908
B(  5-C ,  7-C ) :   0.1080 B(  5-C , 20-H ) :   0.2666 B(  5-C , 23-H ) :  -0.2429
B(  6-H ,  7-C ) :  -0.5277 B(  6-H ,  8-C ) :  -0.5550 B(  6-H , 20-H ) :   0.5126
B(  6-H , 23-H ) :  -0.1226 B(  7-C ,  8-C ) :   4.8843 B(  7-C , 11-C ) :  -0.6475
B(  7-C , 12-C ) :   0.8798 B(  7-C , 13-C ) :  -0.5687 B(  7-C , 15-H ) :  -0.7014
B(  7-C , 17-H ) :   0.4841 B(  7-C , 18-H ) :  -0.1620 B(  7-C , 19-H ) :  -0.4584
B(  7-C , 20-H ) :  -0.5169 B(  7-C , 21-H ) :   0.2412 B(  7-C , 22-H ) :  -0.5116
B(  7-C , 23-H ) :   0.1733 B(  8-C , 11-C ) :   0.3215 B(  8-C , 12-C ) :  -0.1010
B(  8-C , 13-C ) :   0.3049 B(  8-C , 14-C ) :   0.1217 B(  8-C , 15-H ) :  -0.4681
B(  8-C , 16-H ) :   0.2575 B(  8-C , 17-H ) :  -0.3732 B(  8-C , 18-H ) :   0.3078
B(  8-C , 19-H ) :  -0.5737 B(  8-C , 20-H ) :  -0.5863 B(  8-C , 22-H ) :   0.7163
B(  9-C , 10-C ) :   0.4064 B(  9-C , 11-C ) :   0.1734 B(  9-C , 12-C ) :  -0.3275
B(  9-C , 13-C ) :   0.1829 B(  9-C , 14-C ) :   0.3582 B(  9-C , 15-H ) :   0.1840
B(  9-C , 16-H ) :   0.1715 B(  9-C , 18-H ) :   0.1626 B(  9-C , 19-H ) :   0.2060
B(  9-C , 23-H ) :   0.1038 B( 10-C , 11-C ) :   1.5188 B( 10-C , 12-C ) :  -0.3190
B( 10-C , 13-C ) :   0.1858 B( 10-C , 14-C ) :  -0.6634 B( 10-C , 15-H ) :   0.2690
B( 10-C , 18-H ) :  -0.2082 B( 10-C , 19-H ) :   2.0287 B( 11-C , 12-C ) :   1.2774
B( 11-C , 13-C ) :   0.2382 B( 11-C , 14-C ) :   0.2435 B( 11-C , 18-H ) :   0.5229
B( 12-C , 13-C ) :   1.2757 B( 12-C , 14-C ) :  -0.3607 B( 12-C , 15-H ) :  -0.1789
B( 12-C , 16-H ) :   0.1848 B( 12-C , 17-H ) :   0.6112 B( 12-C , 18-H ) :   0.1559
B( 12-C , 19-H ) :  -0.1534 B( 13-C , 14-C ) :   1.4913 B( 13-C , 16-H ) :   0.4633
B( 14-C , 15-H ) :   2.2404 B( 14-C , 16-H ) :  -0.2661 B( 14-C , 19-H ) :   0.2500
B( 15-H , 16-H ) :  -0.1112 B( 15-H , 19-H ) :   0.5185 B( 20-H , 21-H ) :  -0.1082
B( 20-H , 23-H ) :  -0.1061

Dispersion correction           -0.032077332
FINAL SINGLE POINT ENERGY      -539.732109727267

DIPOLE MOMENT
-------------

Method             : SCF
Type of density    : Electron Density
Multiplicity       :   1
Irrep              :   0
Energy             :  -539.7000323956549437 Eh
Relativity type    :
Basis              : AO
                                X                 Y                 Z
Electronic contribution:      0.000011543      -0.000235219       0.000472220
Nuclear contribution   :      0.000001470       0.000375094      -0.000682746
                        -----------------------------------------
Total Dipole Moment    :      0.000013012       0.000139875      -0.000210527
                        -----------------------------------------
Magnitude (a.u.)       :      0.000253092
Magnitude (Debye)      :      0.000643309

Rotational constants in cm-1:             0.094691             0.008279             0.007613
Rotational constants in MHz :          2838.770806           248.185899           228.232190

                             ****ORCA TERMINATED NORMALLY****
TOTAL RUN TIME: 0 days 0 hours 9 minutes 29 seconds 247 msec
