                         Program Version 6.0.0  -   RELEASE  -
|  1> !PBE0 def2-SV(p) Opt Freq d3 TightSCF SlowConv RIJCOSX defgrid2
|  2>
|  3> %pal
|  4> nprocs 4
|  5> end
|  6>
|  7> %scf
|  8> MaxIter 1500
|  9> end
| 10>
| 11> %maxcore 3000
| 12>
| 13>
| 14>
| 15> * xyz 0 1
| 16> C     0.4721574   -1.2096140    0.0000727
| 17> C     1.8549090   -1.2303160    0.0000605
| 18> C     2.5747701   -0.0454260   -0.0000172
| 19> C     1.9067621    1.1694268   -0.0000743
| 20> C     0.5259836    1.1942332   -0.0000542
| 21> C    -0.2111975    0.0073665    0.0000105
| 22> C    -1.6912642    0.1059457   -0.0000003
| 23> O    -2.2546704    1.1867953    0.0001219
| 24> C    -2.4733831   -1.1826609   -0.0001100
| 25> H    -3.5368587   -0.9568304   -0.0002255
| 26> H    -2.2282638   -1.7662512    0.8841745
| 27> H    -2.2280533   -1.7662452   -0.8843369
| 28> H    -0.0129308    2.1305883   -0.0001027
| 29> H     2.4624042    2.0950390   -0.0001369
| 30> H     3.6541296   -0.0688977   -0.0000310
| 31> H     2.3755067   -2.1761430    0.0001114
| 32> H    -0.0674779   -2.1427813    0.0001397
| 33> *
| 34>
| 35>                          ****END OF INPUT****
 Total Charge           Charge          ....    0
 Multiplicity           Mult            ....    1
 Number of Electrons    NEL             ....   64
Dispersion correction           -0.015237403
FINAL SINGLE POINT ENERGY      -384.162316520856
Dispersion correction             ... done (  0.1 sec)
Dispersion correction           -0.015153787
FINAL SINGLE POINT ENERGY      -384.164176317091
Dispersion correction             ... done (  0.1 sec)
Dispersion correction           -0.015142113
FINAL SINGLE POINT ENERGY      -384.164235572606
Dispersion correction             ... done (  0.1 sec)
Dispersion correction           -0.015139499
FINAL SINGLE POINT ENERGY      -384.164250588372
Dispersion correction             ... done (  0.1 sec)
Dispersion correction           -0.015140468
FINAL SINGLE POINT ENERGY      -384.164251506207
Dispersion correction             ... done (  0.1 sec)
                    ***********************HURRAY********************

CARTESIAN COORDINATES (ANGSTROEM)
---------------------------------
  C      0.483606   -1.212294   -0.000371
  C      1.876902   -1.236184   -0.000016
  C      2.594221   -0.040475    0.000226
  C      1.916909    1.180982    0.000109
  C      0.527203    1.203506   -0.000245
  C     -0.203050    0.007953   -0.000519
  C     -1.698233    0.100732   -0.000939
  O     -2.247835    1.180124    0.000473
  C     -2.498738   -1.180560    0.000012
  H     -3.568742   -0.926847    0.000281
  H     -2.267653   -1.792141    0.889603
  H     -2.268266   -1.793145   -0.889030
  H     -0.030461    2.143678   -0.000348
  H      2.479455    2.119292    0.000300
  H      3.688269   -0.060091    0.000511
  H      2.405836   -2.193632    0.000087
  H     -0.066900   -2.156672   -0.000534

 Multiplicity           Mult            ....    1
 Number of Electrons    NEL             ....   64
 Basis Dimension        Dim             ....  142

ORBITAL ENERGIES
----------------

  NO   OCC          E(Eh)            E(eV)
   0   2.0000     -19.198215      -522.4100
   1   2.0000     -10.322791      -280.8974
   2   2.0000     -10.253587      -279.0143
   3   2.0000     -10.251838      -278.9667
   4   2.0000     -10.250392      -278.9274
   5   2.0000     -10.249149      -278.8935
   6   2.0000     -10.246982      -278.8345
   7   2.0000     -10.245273      -278.7880
   8   2.0000     -10.233055      -278.4556
   9   2.0000      -1.061079       -28.8734
  10   2.0000      -0.888576       -24.1794
  11   2.0000      -0.795484       -21.6462
  12   2.0000      -0.774532       -21.0761
  13   2.0000      -0.749788       -20.4028
  14   2.0000      -0.649397       -17.6710
  15   2.0000      -0.628861       -17.1122
  16   2.0000      -0.572881       -15.5889
  17   2.0000      -0.530242       -14.4286
  18   2.0000      -0.489592       -13.3225
  19   2.0000      -0.478025       -13.0077
  20   2.0000      -0.466075       -12.6825
  21   2.0000      -0.463129       -12.6024
  22   2.0000      -0.446865       -12.1598
  23   2.0000      -0.435475       -11.8499
  24   2.0000      -0.407339       -11.0843
  25   2.0000      -0.400395       -10.8953
  26   2.0000      -0.378111       -10.2889
  27   2.0000      -0.372758       -10.1433
  28   2.0000      -0.365032        -9.9330
  29   2.0000      -0.280523        -7.6334
  30   2.0000      -0.276855        -7.5336
  31   2.0000      -0.266762        -7.2590
  32   0.0000      -0.056687        -1.5425
  33   0.0000      -0.013952        -0.3797
  34   0.0000       0.040006         1.0886
  35   0.0000       0.063517         1.7284
  36   0.0000       0.084916         2.3107

MULLIKEN ATOMIC CHARGES
-----------------------
   0 C :   -0.136349
   1 C :   -0.084331
   2 C :   -0.082033
   3 C :   -0.085134
   4 C :   -0.113228
   5 C :   -0.005390
   6 C :    0.085590
   7 O :   -0.214195
   8 C :   -0.342367
   9 H :    0.151395
  10 H :    0.152730
  11 H :    0.152587
  12 H :    0.115811
  13 H :    0.104194
  14 H :    0.105068
  15 H :    0.099945
  16 H :    0.095705
Sum of atomic charges:    0.0000000

LOEWDIN ATOMIC CHARGES
----------------------
   0 C :   -0.110542
   1 C :   -0.128196
   2 C :   -0.110506
   3 C :   -0.125313
   4 C :   -0.086945
   5 C :   -0.088361
   6 C :    0.070586
   7 O :   -0.150845
   8 C :   -0.368947
   9 H :    0.142017
  10 H :    0.143431
  11 H :    0.143357
  12 H :    0.142575
  13 H :    0.132757
  14 H :    0.132454
  15 H :    0.131686
  16 H :    0.130792

  Mayer bond orders larger than 0.100000
B(  0-C ,  1-C ) :   1.3977 B(  0-C ,  5-C ) :   1.3798 B(  0-C , 16-H ) :   0.9467
B(  1-C ,  2-C ) :   1.3985 B(  1-C , 15-H ) :   0.9614 B(  2-C ,  3-C ) :   1.3745
B(  2-C , 14-H ) :   0.9619 B(  3-C ,  4-C ) :   1.3858 B(  3-C , 13-H ) :   0.9653
B(  4-C ,  5-C ) :   1.3938 B(  4-C , 12-H ) :   0.9518 B(  5-C ,  6-C ) :   0.9277
B(  6-C ,  7-O ) :   2.1372 B(  6-C ,  8-C ) :   1.0975 B(  8-C ,  9-H ) :   0.9356
B(  8-C , 10-H ) :   0.9227 B(  8-C , 11-H ) :   0.9226

Dispersion correction           -0.015141647
FINAL SINGLE POINT ENERGY      -384.164251467630

DIPOLE MOMENT
-------------

Method             : SCF
Type of density    : Electron Density
Multiplicity       :   1
Irrep              :   0
Energy             :  -384.1491098206003585 Eh
Relativity type    :
Basis              : AO
                                X                 Y                 Z
Electronic contribution:      0.443215997       3.462993504      -0.002026234
Nuclear contribution   :      0.288396890      -4.357474412       0.001603683
                        -----------------------------------------
Total Dipole Moment    :      0.731612887      -0.894480908      -0.000422551
                        -----------------------------------------
Magnitude (a.u.)       :      1.155575047
Magnitude (Debye)      :      2.937238343

VIBRATIONAL FREQUENCIES
-----------------------

Scaling factor for frequencies =  1.000000000  (already applied!)

     0:       0.00 cm**-1
     1:       0.00 cm**-1
     2:       0.00 cm**-1
     3:       0.00 cm**-1
     4:       0.00 cm**-1
     5:       0.00 cm**-1
     6:      66.84 cm**-1
     7:     153.94 cm**-1
     8:     176.47 cm**-1
     9:     220.08 cm**-1
    10:     369.24 cm**-1
    11:     417.88 cm**-1
    12:     434.44 cm**-1
    13:     469.41 cm**-1
    14:     603.12 cm**-1
    15:     607.46 cm**-1
    16:     628.53 cm**-1
    17:     719.20 cm**-1
    18:     752.88 cm**-1
    19:     788.63 cm**-1
    20:     871.97 cm**-1
    21:     958.22 cm**-1
    22:     970.88 cm**-1
    23:    1011.37 cm**-1
    24:    1019.87 cm**-1
    25:    1032.46 cm**-1
    26:    1054.15 cm**-1
    27:    1059.50 cm**-1
    28:    1104.83 cm**-1
    29:    1111.92 cm**-1
    30:    1173.48 cm**-1
    31:    1192.54 cm**-1
    32:    1304.65 cm**-1
    33:    1334.51 cm**-1
    34:    1386.48 cm**-1
    35:    1412.74 cm**-1
    36:    1452.23 cm**-1
    37:    1462.39 cm**-1
    38:    1496.71 cm**-1
    39:    1541.39 cm**-1
    40:    1672.16 cm**-1
    41:    1692.09 cm**-1
    42:    1838.98 cm**-1
    43:    3045.97 cm**-1
    44:    3134.06 cm**-1
    45:    3179.04 cm**-1
    46:    3195.95 cm**-1
    47:    3206.23 cm**-1
    48:    3215.36 cm**-1
    49:    3223.74 cm**-1
    50:    3228.80 cm**-1

IR SPECTRUM
-----------

 Mode   freq       eps      Int      T**2         TX        TY        TZ
       cm**-1   L/(mol*cm) km/mol    a.u.
----------------------------------------------------------------------------
  6:     66.84   0.000573    2.89  0.002674  ( 0.000055  0.000016  0.051707)
  7:    153.94   0.000000    0.00  0.000001  ( 0.000026 -0.000046  0.000709)
  8:    176.47   0.000085    0.43  0.000151  (-0.000056 -0.000003 -0.012293)
  9:    220.08   0.000933    4.71  0.001323  (-0.036179 -0.003701  0.000025)
 10:    369.24   0.000163    0.82  0.000137  ( 0.005894  0.010130  0.000006)
 11:    417.88   0.000000    0.00  0.000000  ( 0.000006 -0.000008 -0.000065)
 12:    434.44   0.000049    0.25  0.000035  ( 0.000062 -0.000045 -0.005944)
 13:    469.41   0.000151    0.76  0.000100  (-0.007487  0.006647 -0.000022)
 14:    603.12   0.005031   25.42  0.002603  ( 0.049107  0.013824 -0.000466)
 15:    607.46   0.002080   10.51  0.001069  ( 0.000774  0.000164  0.032682)
 16:    628.53   0.000244    1.23  0.000121  (-0.010316 -0.003861 -0.000012)
 17:    719.20   0.008361   42.25  0.003628  ( 0.000016  0.000018 -0.060231)
 18:    752.88   0.000231    1.17  0.000096  ( 0.009651  0.001615  0.000008)
 19:    788.63   0.004370   22.08  0.001729  ( 0.000016 -0.000001 -0.041584)
 20:    871.97   0.000020    0.10  0.000007  ( 0.000008  0.000029 -0.002696)
 21:    958.22   0.000503    2.54  0.000164  ( 0.000009  0.000032 -0.012795)
 22:    970.88   0.003860   19.51  0.001241  (-0.033003 -0.012313  0.000007)
 23:   1011.37   0.000039    0.19  0.000012  (-0.000010 -0.000021  0.003450)
 24:   1019.87   0.000208    1.05  0.000064  ( 0.007629  0.002335  0.000001)
 25:   1032.46   0.000124    0.63  0.000038  ( 0.000005 -0.000030  0.006124)
 26:   1054.15   0.000392    1.98  0.000116  (-0.000081  0.000020 -0.010776)
 27:   1059.50   0.001401    7.08  0.000413  (-0.019830 -0.004407  0.000019)
 28:   1104.83   0.000177    0.90  0.000050  (-0.007075  0.000154  0.000015)
 29:   1111.92   0.001871    9.45  0.000525  ( 0.005510  0.022241  0.000008)
 30:   1173.48   0.000118    0.59  0.000031  ( 0.005161 -0.002156  0.000001)
 31:   1192.54   0.002259   11.42  0.000591  ( 0.023963  0.004129  0.000001)
 32:   1304.65   0.029526  149.21  0.007063  (-0.083703 -0.007506 -0.000010)
 33:   1334.51   0.000331    1.68  0.000078  (-0.008562 -0.002052 -0.000004)
 34:   1386.48   0.019951  100.82  0.004490  (-0.056143 -0.036584  0.000034)
 35:   1412.74   0.000644    3.26  0.000142  ( 0.009548 -0.007153 -0.000006)
 36:   1452.23   0.001956    9.88  0.000420  ( 0.015058 -0.013910 -0.000055)
 37:   1462.39   0.002800   14.15  0.000598  ( 0.000058  0.000005  0.024445)
 38:   1496.71   0.004072   20.58  0.000849  ( 0.018832  0.022233 -0.000000)
 39:   1541.39   0.000514    2.60  0.000104  ( 0.008938  0.004917 -0.000008)
 40:   1672.16   0.001410    7.13  0.000263  ( 0.014580 -0.007110 -0.000004)
 41:   1692.09   0.003972   20.07  0.000733  (-0.026643  0.004762 -0.000001)
 42:   1838.98   0.035656  180.19  0.006051  (-0.047184  0.061841  0.000002)
 43:   3045.97   0.000190    0.96  0.000019  (-0.002169  0.003844  0.000016)
 44:   3134.06   0.000504    2.54  0.000050  (-0.000022 -0.000032 -0.007081)
 45:   3179.04   0.000926    4.68  0.000091  ( 0.009528  0.000313 -0.000011)
 46:   3195.95   0.000025    0.13  0.000002  (-0.000280 -0.001530 -0.000000)
 47:   3206.23   0.000987    4.99  0.000096  ( 0.003456 -0.009174  0.000001)
 48:   3215.36   0.002220   11.22  0.000215  ( 0.012742  0.007286  0.000004)
 49:   3223.74   0.001233    6.23  0.000119  ( 0.003315 -0.010412 -0.000000)
 50:   3228.80   0.001098    5.55  0.000106  (-0.010120 -0.001918  0.000001)

--------------------------
THERMOCHEMISTRY AT 298.15K
--------------------------

Temperature         ...   298.15 K
Pressure            ...     1.00 atm
Total Mass          ...   120.15 AMU
Quasi RRHO          ...     True
Cut-Off Frequency   ...     1.00 cm^-1

Throughout the following assumptions are being made:
  (1) The electronic state is orbitally nondegenerate
  (2) There are no thermally accessible electronically excited states
  (3) Hindered rotations indicated by low frequency modes are not
      treated as such but are treated as vibrations and this may
      cause some error
  (4) All equations used are the standard statistical mechanics
      equations for an ideal gas
  (5) All vibrations are strictly harmonic

freq.      66.84  E(vib)   ...       0.50
freq.     153.94  E(vib)   ...       0.40
freq.     176.47  E(vib)   ...       0.38
freq.     220.08  E(vib)   ...       0.33
freq.     369.24  E(vib)   ...       0.21
freq.     417.88  E(vib)   ...       0.18
freq.     434.44  E(vib)   ...       0.17
freq.     469.41  E(vib)   ...       0.16
freq.     603.12  E(vib)   ...       0.10
freq.     607.46  E(vib)   ...       0.10
freq.     628.53  E(vib)   ...       0.09
freq.     719.20  E(vib)   ...       0.07
freq.     752.88  E(vib)   ...       0.06
freq.     788.63  E(vib)   ...       0.05
freq.     871.97  E(vib)   ...       0.04
freq.     958.22  E(vib)   ...       0.03
freq.     970.88  E(vib)   ...       0.03
freq.    1011.37  E(vib)   ...       0.02
freq.    1019.87  E(vib)   ...       0.02
freq.    1032.46  E(vib)   ...       0.02
freq.    1054.15  E(vib)   ...       0.02
freq.    1059.50  E(vib)   ...       0.02
freq.    1104.83  E(vib)   ...       0.02
freq.    1111.92  E(vib)   ...       0.01
freq.    1173.48  E(vib)   ...       0.01
freq.    1192.54  E(vib)   ...       0.01
freq.    1304.65  E(vib)   ...       0.01
freq.    1334.51  E(vib)   ...       0.01
freq.    1386.48  E(vib)   ...       0.00
freq.    1412.74  E(vib)   ...       0.00
freq.    1452.23  E(vib)   ...       0.00
freq.    1462.39  E(vib)   ...       0.00
freq.    1496.71  E(vib)   ...       0.00
freq.    1541.39  E(vib)   ...       0.00
freq.    1672.16  E(vib)   ...       0.00
freq.    1692.09  E(vib)   ...       0.00
freq.    1838.98  E(vib)   ...       0.00
freq.    3045.97  E(vib)   ...       0.00
freq.    3134.06  E(vib)   ...       0.00
freq.    3179.04  E(vib)   ...       0.00
freq.    3195.95  E(vib)   ...       0.00
freq.    3206.23  E(vib)   ...       0.00
freq.    3215.36  E(vib)   ...       0.00
freq.    3223.74  E(vib)   ...       0.00
freq.    3228.80  E(vib)   ...       0.00

------------
INNER ENERGY
------------

The inner energy is: U= E(el) + E(ZPE) + E(vib) + E(rot) + E(trans)
    E(el)   - is the total energy from the electronic structure calculation
              = E(kin-el) + E(nuc-el) + E(el-el) + E(nuc-nuc)
    E(ZPE)  - the the zero temperature vibrational energy from the frequency calculation
    E(vib)  - the the finite temperature correction to E(ZPE) due to population
              of excited vibrational states
    E(rot)  - is the rotational thermal energy
    E(trans)- is the translational thermal energy

Summary of contributions to the inner energy U:
Electronic energy                ...   -384.16425147 Eh
Zero point energy                ...      0.13895179 Eh      87.19 kcal/mol
Thermal vibrational correction   ...      0.00491423 Eh       3.08 kcal/mol
Thermal rotational correction    ...      0.00141627 Eh       0.89 kcal/mol
Thermal translational correction ...      0.00141627 Eh       0.89 kcal/mol
-----------------------------------------------------------------------
Total thermal energy                   -384.01755290 Eh

Summary of corrections to the electronic energy:
(perhaps to be used in another calculation)
Total thermal correction                  0.00774678 Eh       4.86 kcal/mol
Non-thermal (ZPE) correction              0.13895179 Eh      87.19 kcal/mol
-----------------------------------------------------------------------
Total correction                          0.14669857 Eh      92.05 kcal/mol

--------
ENTHALPY
--------

The enthalpy is H = U + kB*T
                kB is Boltzmann's constant
Total thermal energy              ...   -384.01755290 Eh
Thermal Enthalpy correction       ...      0.00094421 Eh       0.59 kcal/mol
-----------------------------------------------------------------------
Total Enthalpy                    ...   -384.01660869 Eh

Note: Only C1 symmetry has been detected, increase convergence thresholds
      if your molecule has a higher symmetry. Symmetry factor of 1.0 is
      used for the rotational entropy correction.

Note: Rotational entropy computed according to Herzberg
Infrared and Raman Spectra, Chapter V,1, Van Nostrand Reinhold, 1945
Point Group:  C1, Symmetry Number:   1
Rotational constants in cm-1:     0.123087     0.040626     0.030722

Vibrational entropy computed according to the QRRHO of S. Grimme
Chem.Eur.J. 2012 18 9955 using a reference frequency of 100.0 cm-1

-------
ENTROPY
-------

The entropy contributions are T*S = T*(S(el)+S(vib)+S(rot)+S(trans))
     S(el)   - electronic entropy
     S(vib)  - vibrational entropy
     S(rot)  - rotational entropy
     S(trans)- translational entropy
The entropies will be listed as multiplied by the temperature to get
units of energy

Electronic entropy                ...      0.00000000 Eh      0.00 kcal/mol
Vibrational entropy               ...      0.00811617 Eh      5.09 kcal/mol
Rotational entropy                ...      0.01365623 Eh      8.57 kcal/mol
Translational entropy             ...      0.01913124 Eh     12.01 kcal/mol
-----------------------------------------------------------------------
Final entropy term                ...      0.04090365 Eh     25.67 kcal/mol

In case the symmetry of your molecule has not been determined correctly
or in case you have a reason to use a different symmetry number we print
out the resulting rotational entropy values for sn=1,12:

 non-linear molecules -----------------------------------
|  sn= 1 | S(rot)=       0.01365623 Eh      8.57 kcal/mol|
|  sn= 2 | S(rot)=       0.01300178 Eh      8.16 kcal/mol|
|  sn= 3 | S(rot)=       0.01261894 Eh      7.92 kcal/mol|
|  sn= 4 | S(rot)=       0.01234732 Eh      7.75 kcal/mol|
|  sn= 5 | S(rot)=       0.01213663 Eh      7.62 kcal/mol|
|  sn= 6 | S(rot)=       0.01196449 Eh      7.51 kcal/mol|
|  sn= 7 | S(rot)=       0.01181894 Eh      7.42 kcal/mol|
|  sn= 8 | S(rot)=       0.01169286 Eh      7.34 kcal/mol|
|  sn= 9 | S(rot)=       0.01158165 Eh      7.27 kcal/mol|
|  sn=10 | S(rot)=       0.01148218 Eh      7.21 kcal/mol|
|  sn=11 | S(rot)=       0.01139219 Eh      7.15 kcal/mol|
|  sn=12 | S(rot)=       0.01131003 Eh      7.10 kcal/mol|
 linear molecules ---------------------------------------
|  Dinfh | S(rot)=       0.00861418 Eh      5.41 kcal/mol|
|  Cinfv | S(rot)=       0.00926863 Eh      5.82 kcal/mol|

                             ****ORCA TERMINATED NORMALLY****
TOTAL RUN TIME: 0 days 0 hours 7 minutes 30 seconds 532 msec
