                         Program Version 6.0.0  -   RELEASE  -
|  1> !PBE0 def2-SV(p) Opt Freq d3 TightSCF SlowConv RIJCOSX defgrid2
|  2>
|  3> %pal
|  4> nprocs 4
|  5> end
|  6>
|  7> %scf
|  8> MaxIter 1500
|  9> end
| 10>
| 11> %maxcore 3000
| 12>
| 13>
| 14>
| 15> * xyz 0 1
| 16> C     0.8626856   -1.1917349    0.0001337
| 17> C     1.2268641    0.1541574    0.0001495
| 18> C     0.2041349    1.1040425    0.0000669
| 19> C    -1.1351766    0.7505080   -0.0000331
| 20> C    -1.4831740   -0.6046711    0.0000053
| 21> C    -0.4693455   -1.5548776    0.0000736
| 22> H    -0.7316071   -2.6040915    0.0000955
| 23> C    -2.9199636   -1.0277294   -0.0000104
| 24> H    -3.0020245   -2.1116815    0.0003383
| 25> H    -3.4329876   -0.6397285   -0.8795274
| 26> H    -3.4331733   -0.6391365    0.8791323
| 27> C    -2.1960323    1.8096794   -0.0001382
| 28> H    -2.8315392    1.7140100    0.8796324
| 29> H    -2.8319560    1.7134335   -0.8795389
| 30> H    -1.7507344    2.8013302   -0.0005592
| 31> H     0.4683087    2.1534879    0.0000716
| 32> C     2.6118984    0.6098405    0.0003070
| 33> C     3.7021878   -0.1491461   -0.0004291
| 34> H     3.6633538   -1.2249607   -0.0012501
| 35> H     4.6870707    0.2861264   -0.0002430
| 36> H     2.7280417    1.6876410    0.0010146
| 37> H     1.6203999   -1.9599514    0.0002287
| 38> *
| 39>
| 40>                          ****END OF INPUT****
 Total Charge           Charge          ....    0
 Multiplicity           Mult            ....    1
 Number of Electrons    NEL             ....   72
Dispersion correction           -0.020345214
FINAL SINGLE POINT ENERGY      -387.522882121674
Dispersion correction             ... done (  0.1 sec)
Dispersion correction           -0.020206158
FINAL SINGLE POINT ENERGY      -387.525656880026
Dispersion correction             ... done (  0.1 sec)
Dispersion correction           -0.020187937
FINAL SINGLE POINT ENERGY      -387.525727564278
Dispersion correction             ... done (  0.0 sec)
Dispersion correction           -0.020180827
FINAL SINGLE POINT ENERGY      -387.525755542995
Dispersion correction             ... done (  0.1 sec)
                    ***********************HURRAY********************

CARTESIAN COORDINATES (ANGSTROEM)
---------------------------------
  C      0.869303   -1.202619    0.000171
  C      1.237954    0.149760    0.000119
  C      0.208617    1.101787    0.000050
  C     -1.142665    0.752778   -0.000015
  C     -1.495101   -0.610918    0.000020
  C     -0.471348   -1.565605    0.000117
  H     -0.738258   -2.627595    0.000170
  C     -2.935614   -1.031998   -0.000033
  H     -3.030426   -2.129841    0.000054
  H     -3.472396   -0.646838   -0.886491
  H     -3.472501   -0.646689    0.886297
  C     -2.202612    1.816569   -0.000093
  H     -2.858256    1.738024    0.886480
  H     -2.858342    1.737827   -0.886582
  H     -1.756735    2.824244   -0.000221
  H      0.477474    2.164080    0.000025
  C      2.632247    0.608485    0.000127
  C      3.739488   -0.145919   -0.000362
  H      3.706459   -1.241530   -0.000868
  H      4.732440    0.315599   -0.000293
  H      2.752186    1.699793    0.000555
  H      1.635318   -1.982846    0.000292

 Multiplicity           Mult            ....    1
 Number of Electrons    NEL             ....   72
 Basis Dimension        Dim             ....  164

ORBITAL ENERGIES
----------------

  NO   OCC          E(Eh)            E(eV)
   0   2.0000     -10.242172      -278.7037
   1   2.0000     -10.241703      -278.6909
   2   2.0000     -10.240561      -278.6598
   3   2.0000     -10.237195      -278.5682
   4   2.0000     -10.231565      -278.4150
   5   2.0000     -10.230919      -278.3974
   6   2.0000     -10.230892      -278.3967
   7   2.0000     -10.227989      -278.3177
   8   2.0000     -10.227723      -278.3105
   9   2.0000     -10.226080      -278.2658
  10   2.0000      -0.882848       -24.0235
  11   2.0000      -0.818271       -22.2663
  12   2.0000      -0.781190       -21.2573
  13   2.0000      -0.761845       -20.7308
  14   2.0000      -0.712523       -19.3887
  15   2.0000      -0.684298       -18.6207
  16   2.0000      -0.616426       -16.7738
  17   2.0000      -0.611220       -16.6321
  18   2.0000      -0.554198       -15.0805
  19   2.0000      -0.513165       -13.9639
  20   2.0000      -0.496590       -13.5129
  21   2.0000      -0.462977       -12.5982
  22   2.0000      -0.449880       -12.2419
  23   2.0000      -0.444016       -12.0823
  24   2.0000      -0.428515       -11.6605
  25   2.0000      -0.422260       -11.4903
  26   2.0000      -0.412621       -11.2280
  27   2.0000      -0.399595       -10.8735
  28   2.0000      -0.395964       -10.7747
  29   2.0000      -0.376936       -10.2570
  30   2.0000      -0.373016       -10.1503
  31   2.0000      -0.349995        -9.5238
  32   2.0000      -0.343716        -9.3530
  33   2.0000      -0.304520        -8.2864
  34   2.0000      -0.257776        -7.0144
  35   2.0000      -0.229556        -6.2465
  36   0.0000      -0.031354        -0.8532
  37   0.0000       0.003419         0.0930
  38   0.0000       0.060446         1.6448
  39   0.0000       0.068991         1.8774
  40   0.0000       0.085367         2.3230

MULLIKEN ATOMIC CHARGES
-----------------------
   0 C :   -0.142484
   1 C :    0.120397
   2 C :   -0.223575
   3 C :   -0.022393
   4 C :   -0.044039
   5 C :   -0.144374
   6 H :    0.077247
   7 C :   -0.284157
   8 H :    0.129642
   9 H :    0.136407
  10 H :    0.136403
  11 C :   -0.283705
  12 H :    0.136101
  13 H :    0.136096
  14 H :    0.129858
  15 H :    0.071831
  16 C :   -0.113573
  17 C :   -0.254118
  18 H :    0.131199
  19 H :    0.130314
  20 H :    0.094503
  21 H :    0.082419
Sum of atomic charges:    0.0000000

LOEWDIN ATOMIC CHARGES
----------------------
   0 C :   -0.116199
   1 C :   -0.051248
   2 C :   -0.117137
   3 C :   -0.050387
   4 C :   -0.049953
   5 C :   -0.124691
   6 H :    0.125570
   7 C :   -0.326962
   8 H :    0.127492
   9 H :    0.131959
  10 H :    0.131958
  11 C :   -0.326262
  12 H :    0.131716
  13 H :    0.131713
  14 H :    0.127428
  15 H :    0.124026
  16 C :   -0.124449
  17 C :   -0.252779
  18 H :    0.124209
  19 H :    0.129820
  20 H :    0.126908
  21 H :    0.127268

  Mayer bond orders larger than 0.100000
B(  0-C ,  1-C ) :   1.3598 B(  0-C ,  5-C ) :   1.4061 B(  0-C , 21-H ) :   0.9544
B(  1-C ,  2-C ) :   1.3367 B(  1-C , 16-C ) :   1.0871 B(  2-C ,  3-C ) :   1.4131
B(  2-C , 15-H ) :   0.9559 B(  3-C ,  4-C ) :   1.4026 B(  3-C , 11-C ) :   1.1074
B(  4-C ,  5-C ) :   1.4019 B(  4-C ,  7-C ) :   1.1101 B(  5-C ,  6-H ) :   0.9570
B(  7-C ,  8-H ) :   0.9432 B(  7-C ,  9-H ) :   0.9294 B(  7-C , 10-H ) :   0.9294
B( 11-C , 12-H ) :   0.9297 B( 11-C , 13-H ) :   0.9297 B( 11-C , 14-H ) :   0.9431
B( 16-C , 17-C ) :   1.9766 B( 16-C , 20-H ) :   0.9352 B( 17-C , 18-H ) :   0.9109
B( 17-C , 19-H ) :   0.9248

Dispersion correction           -0.020182978
FINAL SINGLE POINT ENERGY      -387.525756776065

DIPOLE MOMENT
-------------

Method             : SCF
Type of density    : Electron Density
Multiplicity       :   1
Irrep              :   0
Energy             :  -387.5055737979442938 Eh
Relativity type    :
Basis              : AO
                                X                 Y                 Z
Electronic contribution:      4.240038469      -1.106841182       0.000594390
Nuclear contribution   :     -4.612312787       1.157001157      -0.000599620
                        -----------------------------------------
Total Dipole Moment    :     -0.372274318       0.050159974      -0.000005230
                        -----------------------------------------
Magnitude (a.u.)       :      0.375638378
Magnitude (Debye)      :      0.954796877

VIBRATIONAL FREQUENCIES
-----------------------

Scaling factor for frequencies =  1.000000000  (already applied!)

     0:       0.00 cm**-1
     1:       0.00 cm**-1
     2:       0.00 cm**-1
     3:       0.00 cm**-1
     4:       0.00 cm**-1
     5:       0.00 cm**-1
     6:      53.09 cm**-1
     7:     130.58 cm**-1
     8:     139.24 cm**-1
     9:     175.31 cm**-1
    10:     201.95 cm**-1
    11:     217.13 cm**-1
    12:     303.59 cm**-1
    13:     313.18 cm**-1
    14:     378.46 cm**-1
    15:     435.04 cm**-1
    16:     452.66 cm**-1
    17:     522.74 cm**-1
    18:     541.82 cm**-1
    19:     579.63 cm**-1
    20:     686.98 cm**-1
    21:     726.77 cm**-1
    22:     760.29 cm**-1
    23:     776.79 cm**-1
    24:     850.04 cm**-1
    25:     918.47 cm**-1
    26:     927.52 cm**-1
    27:     950.90 cm**-1
    28:     982.27 cm**-1
    29:    1012.03 cm**-1
    30:    1016.69 cm**-1
    31:    1034.30 cm**-1
    32:    1046.98 cm**-1
    33:    1052.37 cm**-1
    34:    1076.01 cm**-1
    35:    1150.93 cm**-1
    36:    1200.30 cm**-1
    37:    1244.25 cm**-1
    38:    1293.20 cm**-1
    39:    1318.28 cm**-1
    40:    1331.72 cm**-1
    41:    1387.88 cm**-1
    42:    1406.83 cm**-1
    43:    1417.12 cm**-1
    44:    1435.93 cm**-1
    45:    1455.61 cm**-1
    46:    1461.44 cm**-1
    47:    1476.37 cm**-1
    48:    1482.30 cm**-1
    49:    1494.20 cm**-1
    50:    1564.30 cm**-1
    51:    1654.37 cm**-1
    52:    1704.40 cm**-1
    53:    1732.01 cm**-1
    54:    3026.39 cm**-1
    55:    3027.95 cm**-1
    56:    3100.14 cm**-1
    57:    3104.76 cm**-1
    58:    3141.97 cm**-1
    59:    3142.47 cm**-1
    60:    3158.17 cm**-1
    61:    3168.97 cm**-1
    62:    3178.79 cm**-1
    63:    3187.41 cm**-1
    64:    3212.18 cm**-1
    65:    3251.10 cm**-1

IR SPECTRUM
-----------

 Mode   freq       eps      Int      T**2         TX        TY        TZ
       cm**-1   L/(mol*cm) km/mol    a.u.
----------------------------------------------------------------------------
  6:     53.09   0.000019    0.10  0.000112  (-0.000019 -0.000001  0.010590)
  7:    130.58   0.000100    0.50  0.000238  ( 0.000006  0.000000  0.015422)
  8:    139.24   0.000098    0.50  0.000220  ( 0.000007  0.000002  0.014825)
  9:    175.31   0.000221    1.12  0.000393  (-0.000006 -0.000001 -0.019826)
 10:    201.95   0.000070    0.36  0.000109  (-0.008802  0.005607 -0.000013)
 11:    217.13   0.000417    2.11  0.000600  ( 0.000005  0.000001  0.024488)
 12:    303.59   0.000039    0.20  0.000040  ( 0.006284 -0.000573  0.000002)
 13:    313.18   0.000031    0.16  0.000031  ( 0.000005 -0.000006 -0.005579)
 14:    378.46   0.000144    0.73  0.000119  (-0.009055 -0.006059  0.000004)
 15:    435.04   0.000256    1.29  0.000183  ( 0.013280 -0.002645  0.000001)
 16:    452.66   0.001145    5.79  0.000790  ( 0.000009 -0.000000 -0.028098)
 17:    522.74   0.000892    4.51  0.000532  ( 0.000018 -0.000003 -0.023072)
 18:    541.82   0.000305    1.54  0.000176  (-0.011252  0.007014 -0.000032)
 19:    579.63   0.000188    0.95  0.000101  (-0.008453 -0.005466 -0.000010)
 20:    686.98   0.000065    0.33  0.000030  ( 0.000011  0.000004 -0.005432)
 21:    726.77   0.000176    0.89  0.000076  ( 0.008546  0.001623  0.000004)
 22:    760.29   0.000333    1.68  0.000137  (-0.000005 -0.000006 -0.011690)
 23:    776.79   0.000001    0.00  0.000000  (-0.000392  0.000300 -0.000001)
 24:    850.04   0.003167   16.00  0.001163  (-0.000012 -0.000000  0.034097)
 25:    918.47   0.005204   26.30  0.001768  ( 0.000002  0.000008 -0.042051)
 26:    927.52   0.004330   21.88  0.001457  ( 0.000004 -0.000011  0.038168)
 27:    950.90   0.000027    0.14  0.000009  ( 0.001029 -0.002799 -0.000004)
 28:    982.27   0.000080    0.40  0.000025  ( 0.000002  0.000001 -0.005027)
 29:   1012.03   0.002381   12.03  0.000734  (-0.027091  0.000595  0.000004)
 30:   1016.69   0.000888    4.49  0.000272  (-0.015289  0.006218 -0.000000)
 31:   1034.30   0.002220   11.22  0.000670  ( 0.000007  0.000008  0.025880)
 32:   1046.98   0.001870    9.45  0.000557  (-0.000001 -0.000007 -0.023606)
 33:   1052.37   0.000388    1.96  0.000115  ( 0.007971  0.007184 -0.000012)
 34:   1076.01   0.000004    0.02  0.000001  ( 0.000003 -0.000001 -0.001054)
 35:   1150.93   0.000546    2.76  0.000148  (-0.005755 -0.010725  0.000002)
 36:   1200.30   0.000348    1.76  0.000090  ( 0.007075 -0.006348 -0.000001)
 37:   1244.25   0.000177    0.90  0.000045  ( 0.006608  0.000923 -0.000002)
 38:   1293.20   0.000535    2.71  0.000129  (-0.011232  0.001745  0.000001)
 39:   1318.28   0.000939    4.75  0.000222  (-0.014911 -0.000201  0.000001)
 40:   1331.72   0.000404    2.04  0.000095  ( 0.004888 -0.008410 -0.000003)
 41:   1387.88   0.000754    3.81  0.000170  (-0.012591 -0.003325 -0.000001)
 42:   1406.83   0.000040    0.20  0.000009  (-0.001921  0.002269  0.000001)
 43:   1417.12   0.000263    1.33  0.000058  ( 0.004450 -0.006182 -0.000002)
 44:   1435.93   0.000112    0.56  0.000024  ( 0.000062  0.004925  0.000004)
 45:   1455.61   0.001521    7.69  0.000326  ( 0.000355 -0.018056  0.000001)
 46:   1461.44   0.000000    0.00  0.000000  ( 0.000000  0.000002 -0.000042)
 47:   1476.37   0.004345   21.96  0.000918  ( 0.000002 -0.000001 -0.030304)
 48:   1482.30   0.000505    2.55  0.000106  ( 0.000365  0.010309  0.000000)
 49:   1494.20   0.003320   16.78  0.000693  (-0.008801 -0.024820 -0.000001)
 50:   1564.30   0.004550   22.99  0.000908  ( 0.030004 -0.002729 -0.000001)
 51:   1654.37   0.000748    3.78  0.000141  (-0.008668  0.008124 -0.000001)
 52:   1704.40   0.000736    3.72  0.000135  ( 0.003501 -0.011065 -0.000002)
 53:   1732.01   0.002622   13.25  0.000473  ( 0.021052 -0.005416 -0.000006)
 54:   3026.39   0.008215   41.51  0.000847  ( 0.029046 -0.001833 -0.000000)
 55:   3027.95   0.002227   11.26  0.000230  (-0.007124  0.013371  0.000001)
 56:   3100.14   0.003794   19.17  0.000382  (-0.000001  0.000001 -0.019542)
 57:   3104.76   0.000132    0.67  0.000013  (-0.000002  0.000002 -0.003637)
 58:   3141.97   0.003277   16.56  0.000325  ( 0.002895  0.017806 -0.000001)
 59:   3142.47   0.000807    4.08  0.000080  (-0.005490 -0.007069 -0.000001)
 60:   3158.17   0.002362   11.94  0.000233  ( 0.005887  0.014098  0.000006)
 61:   3168.97   0.000373    1.88  0.000037  (-0.005973  0.001007  0.000001)
 62:   3178.79   0.003544   17.91  0.000348  (-0.005781 -0.017734 -0.000001)
 63:   3187.41   0.001733    8.76  0.000170  (-0.008913 -0.009498  0.000000)
 64:   3212.18   0.001746    8.82  0.000170  ( 0.005251 -0.011919  0.000001)
 65:   3251.10   0.001295    6.55  0.000124  ( 0.006484  0.009071  0.000002)

--------------------------
THERMOCHEMISTRY AT 298.15K
--------------------------

Temperature         ...   298.15 K
Pressure            ...     1.00 atm
Total Mass          ...   132.21 AMU
Quasi RRHO          ...     True
Cut-Off Frequency   ...     1.00 cm^-1

Throughout the following assumptions are being made:
  (1) The electronic state is orbitally nondegenerate
  (2) There are no thermally accessible electronically excited states
  (3) Hindered rotations indicated by low frequency modes are not
      treated as such but are treated as vibrations and this may
      cause some error
  (4) All equations used are the standard statistical mechanics
      equations for an ideal gas
  (5) All vibrations are strictly harmonic

freq.      53.09  E(vib)   ...       0.52
freq.     130.58  E(vib)   ...       0.43
freq.     139.24  E(vib)   ...       0.42
freq.     175.31  E(vib)   ...       0.38
freq.     201.95  E(vib)   ...       0.35
freq.     217.13  E(vib)   ...       0.34
freq.     303.59  E(vib)   ...       0.26
freq.     313.18  E(vib)   ...       0.25
freq.     378.46  E(vib)   ...       0.21
freq.     435.04  E(vib)   ...       0.17
freq.     452.66  E(vib)   ...       0.16
freq.     522.74  E(vib)   ...       0.13
freq.     541.82  E(vib)   ...       0.12
freq.     579.63  E(vib)   ...       0.11
freq.     686.98  E(vib)   ...       0.07
freq.     726.77  E(vib)   ...       0.06
freq.     760.29  E(vib)   ...       0.06
freq.     776.79  E(vib)   ...       0.05
freq.     850.04  E(vib)   ...       0.04
freq.     918.47  E(vib)   ...       0.03
freq.     927.52  E(vib)   ...       0.03
freq.     950.90  E(vib)   ...       0.03
freq.     982.27  E(vib)   ...       0.02
freq.    1012.03  E(vib)   ...       0.02
freq.    1016.69  E(vib)   ...       0.02
freq.    1034.30  E(vib)   ...       0.02
freq.    1046.98  E(vib)   ...       0.02
freq.    1052.37  E(vib)   ...       0.02
freq.    1076.01  E(vib)   ...       0.02
freq.    1150.93  E(vib)   ...       0.01
freq.    1200.30  E(vib)   ...       0.01
freq.    1244.25  E(vib)   ...       0.01
freq.    1293.20  E(vib)   ...       0.01
freq.    1318.28  E(vib)   ...       0.01
freq.    1331.72  E(vib)   ...       0.01
freq.    1387.88  E(vib)   ...       0.00
freq.    1406.83  E(vib)   ...       0.00
freq.    1417.12  E(vib)   ...       0.00
freq.    1435.93  E(vib)   ...       0.00
freq.    1455.61  E(vib)   ...       0.00
freq.    1461.44  E(vib)   ...       0.00
freq.    1476.37  E(vib)   ...       0.00
freq.    1482.30  E(vib)   ...       0.00
freq.    1494.20  E(vib)   ...       0.00
freq.    1564.30  E(vib)   ...       0.00
freq.    1654.37  E(vib)   ...       0.00
freq.    1704.40  E(vib)   ...       0.00
freq.    1732.01  E(vib)   ...       0.00
freq.    3026.39  E(vib)   ...       0.00
freq.    3027.95  E(vib)   ...       0.00
freq.    3100.14  E(vib)   ...       0.00
freq.    3104.76  E(vib)   ...       0.00
freq.    3141.97  E(vib)   ...       0.00
freq.    3142.47  E(vib)   ...       0.00
freq.    3158.17  E(vib)   ...       0.00
freq.    3168.97  E(vib)   ...       0.00
freq.    3178.79  E(vib)   ...       0.00
freq.    3187.41  E(vib)   ...       0.00
freq.    3212.18  E(vib)   ...       0.00
freq.    3251.10  E(vib)   ...       0.00

------------
INNER ENERGY
------------

The inner energy is: U= E(el) + E(ZPE) + E(vib) + E(rot) + E(trans)
    E(el)   - is the total energy from the electronic structure calculation
              = E(kin-el) + E(nuc-el) + E(el-el) + E(nuc-nuc)
    E(ZPE)  - the the zero temperature vibrational energy from the frequency calculation
    E(vib)  - the the finite temperature correction to E(ZPE) due to population
              of excited vibrational states
    E(rot)  - is the rotational thermal energy
    E(trans)- is the translational thermal energy

Summary of contributions to the inner energy U:
Electronic energy                ...   -387.52575678 Eh
Zero point energy                ...      0.18948556 Eh     118.90 kcal/mol
Thermal vibrational correction   ...      0.00710800 Eh       4.46 kcal/mol
Thermal rotational correction    ...      0.00141627 Eh       0.89 kcal/mol
Thermal translational correction ...      0.00141627 Eh       0.89 kcal/mol
-----------------------------------------------------------------------
Total thermal energy                   -387.32633067 Eh

Summary of corrections to the electronic energy:
(perhaps to be used in another calculation)
Total thermal correction                  0.00994054 Eh       6.24 kcal/mol
Non-thermal (ZPE) correction              0.18948556 Eh     118.90 kcal/mol
-----------------------------------------------------------------------
Total correction                          0.19942610 Eh     125.14 kcal/mol

--------
ENTHALPY
--------

The enthalpy is H = U + kB*T
                kB is Boltzmann's constant
Total thermal energy              ...   -387.32633067 Eh
Thermal Enthalpy correction       ...      0.00094421 Eh       0.59 kcal/mol
-----------------------------------------------------------------------
Total Enthalpy                    ...   -387.32538646 Eh

Note: Only C1 symmetry has been detected, increase convergence thresholds
      if your molecule has a higher symmetry. Symmetry factor of 1.0 is
      used for the rotational entropy correction.

Note: Rotational entropy computed according to Herzberg
Infrared and Raman Spectra, Chapter V,1, Van Nostrand Reinhold, 1945
Point Group:  C1, Symmetry Number:   1
Rotational constants in cm-1:     0.097441     0.028572     0.022278

Vibrational entropy computed according to the QRRHO of S. Grimme
Chem.Eur.J. 2012 18 9955 using a reference frequency of 100.0 cm-1

-------
ENTROPY
-------

The entropy contributions are T*S = T*(S(el)+S(vib)+S(rot)+S(trans))
     S(el)   - electronic entropy
     S(vib)  - vibrational entropy
     S(rot)  - rotational entropy
     S(trans)- translational entropy
The entropies will be listed as multiplied by the temperature to get
units of energy

Electronic entropy                ...      0.00000000 Eh      0.00 kcal/mol
Vibrational entropy               ...      0.01201393 Eh      7.54 kcal/mol
Rotational entropy                ...      0.01408442 Eh      8.84 kcal/mol
Translational entropy             ...      0.01926665 Eh     12.09 kcal/mol
-----------------------------------------------------------------------
Final entropy term                ...      0.04536499 Eh     28.47 kcal/mol

In case the symmetry of your molecule has not been determined correctly
or in case you have a reason to use a different symmetry number we print
out the resulting rotational entropy values for sn=1,12:

 non-linear molecules -----------------------------------

                             ****ORCA TERMINATED NORMALLY****
TOTAL RUN TIME: 0 days 0 hours 7 minutes 29 seconds 672 msec
