                         Program Version 6.0.0  -   RELEASE  -
|  1> !PBE0 def2-SV(p) Opt Freq d3 TightSCF SlowConv RIJCOSX defgrid2
|  2>
|  3> %pal
|  4> nprocs 4
|  5> end
|  6>
|  7> %scf
|  8> MaxIter 1500
|  9> end
| 10>
| 11> %maxcore 3000
| 12>
| 13>
| 14>
| 15> * xyz -1 2
| 16> C    -0.0417565    1.1933888   -0.0039720
| 17> C    -1.4125216    1.2004738   -0.0059969
| 18> C    -2.1627812    0.0199467   -0.0076749
| 19> C    -1.4542018   -1.1912381   -0.0047720
| 20> C    -0.0879339   -1.2201590   -0.0027143
| 21> C     0.6968389   -0.0274841   -0.0006975
| 22> C     2.1097349   -0.0961704    0.0021531
| 23> O     2.7711478   -1.1960516    0.0041094
| 24> C     2.8984852    1.2167941    0.0031667
| 25> H     3.9633162    0.9886634    0.0057516
| 26> H     2.6632162    1.8098215    0.8880202
| 27> H     2.6673393    1.8087288   -0.8835107
| 28> H     0.4467855   -2.1639545   -0.0035817
| 29> H    -2.0085866   -2.1249269   -0.0071610
| 30> C    -3.6640590    0.0417549    0.0154342
| 31> H    -4.0407486   -0.0767610    1.0354709
| 32> H    -4.0407173    0.9861893   -0.3740135
| 33> H    -4.0709483   -0.7722327   -0.5842460
| 34> H    -1.9355486    2.1522643   -0.0091006
| 35> H     0.4886679    2.1366707   -0.0060541
| 36> *
| 37>
| 38>                          ****END OF INPUT****
 Total Charge           Charge          ....   -1
 Multiplicity           Mult            ....    2
 Number of Electrons    NEL             ....   73
Dispersion correction           -0.018041488
FINAL SINGLE POINT ENERGY      -423.398408347340
Dispersion correction             ... done (  0.1 sec)
Dispersion correction           -0.017922177
FINAL SINGLE POINT ENERGY      -423.401981296910
Dispersion correction             ... done (  0.0 sec)
Dispersion correction           -0.017896433
FINAL SINGLE POINT ENERGY      -423.402340686912
Dispersion correction             ... done (  0.0 sec)
FINAL SINGLE POINT ENERGY      -423.402405752454
FINAL SINGLE POINT ENERGY      -423.402414634932
FINAL SINGLE POINT ENERGY      -423.402416250332
FINAL SINGLE POINT ENERGY      -423.402417590893
FINAL SINGLE POINT ENERGY      -423.402419537022
FINAL SINGLE POINT ENERGY      -423.402424777000
FINAL SINGLE POINT ENERGY      -423.402432837964
FINAL SINGLE POINT ENERGY      -423.402437888946
FINAL SINGLE POINT ENERGY      -423.402446745669
FINAL SINGLE POINT ENERGY      -423.402449372651
Dispersion correction             ... done (  0.0 sec)
Dispersion correction           -0.017898275
FINAL SINGLE POINT ENERGY      -423.402451340779
Dispersion correction             ... done (  0.1 sec)
Dispersion correction           -0.017897660
FINAL SINGLE POINT ENERGY      -423.402452740244
Dispersion correction             ... done (  0.0 sec)
                    ***********************HURRAY********************

CARTESIAN COORDINATES (ANGSTROEM)
---------------------------------
  C     -0.041885    1.206496   -0.030594
  C     -1.427590    1.209001   -0.032048
  C     -2.186928    0.022078    0.007781
  C     -1.452453   -1.194495    0.049732
  C     -0.075935   -1.217978    0.051929
  C      0.706787   -0.017191    0.012223
  C      2.137228   -0.104848    0.017446
  O      2.772084   -1.189196    0.054363
  C      2.927618    1.201979   -0.024015
  H      3.999995    0.945448   -0.005559
  H      2.707322    1.864155    0.838245
  H      2.722995    1.798393   -0.936851
  H      0.477124   -2.161701    0.084796
  H     -2.004395   -2.144944    0.081641
  C     -3.686075    0.029108    0.005701
  H     -4.121746   -0.452232    0.908263
  H     -4.078028    1.062565   -0.027733
  H     -4.119937   -0.508750   -0.865320
  H     -1.956610    2.172339   -0.065808
  H      0.486158    2.165493   -0.063581

 Multiplicity           Mult            ....    2
 Number of Electrons    NEL             ....   73
 Basis Dimension        Dim             ....  160

ORBITAL ENERGIES
----------------
                 SPIN UP ORBITALS
  NO   OCC          E(Eh)            E(eV)
   0   1.0000     -18.970233      -516.2063
   1   1.0000     -10.094965      -274.6980
   2   1.0000     -10.093224      -274.6506
   3   1.0000     -10.067908      -273.9617
   4   1.0000     -10.065974      -273.9091
   5   1.0000     -10.064184      -273.8604
   6   1.0000     -10.063765      -273.8490
   7   1.0000     -10.059147      -273.7233
   8   1.0000     -10.053900      -273.5805
   9   1.0000     -10.044909      -273.3359
  10   1.0000      -0.821287       -22.3484
  11   1.0000      -0.698976       -19.0201
  12   1.0000      -0.629535       -17.1305
  13   1.0000      -0.590613       -16.0714
  14   1.0000      -0.579028       -15.7562
  15   1.0000      -0.540439       -14.7061
  16   1.0000      -0.453842       -12.3497
  17   1.0000      -0.442400       -12.0383
  18   1.0000      -0.387407       -10.5419
  19   1.0000      -0.333862        -9.0849
  20   1.0000      -0.315594        -8.5877
  21   1.0000      -0.293744        -7.9932
  22   1.0000      -0.291777        -7.9396
  23   1.0000      -0.280064        -7.6209
  24   1.0000      -0.278734        -7.5847
  25   1.0000      -0.260623        -7.0919
  26   1.0000      -0.257698        -7.0123
  27   1.0000      -0.228945        -6.2299
  28   1.0000      -0.221278        -6.0213
  29   1.0000      -0.210587        -5.7304
  30   1.0000      -0.198019        -5.3884
  31   1.0000      -0.175356        -4.7717
  32   1.0000      -0.168514        -4.5855
  33   1.0000      -0.103002        -2.8028
  34   1.0000      -0.088885        -2.4187
  35   1.0000      -0.060796        -1.6544
  36   1.0000       0.056282         1.5315
  37   0.0000       0.168965         4.5978
  38   0.0000       0.198287         5.3957
  39   0.0000       0.202987         5.5236
  40   0.0000       0.216691         5.8965
  41   0.0000       0.237754         6.4696

                 SPIN DOWN ORBITALS
  NO   OCC          E(Eh)            E(eV)
   0   1.0000     -18.962955      -516.0082
   1   1.0000     -10.095498      -274.7125
   2   1.0000     -10.090088      -274.5652
   3   1.0000     -10.069421      -274.0029
   4   1.0000     -10.064845      -273.8783
   5   1.0000     -10.064546      -273.8702
   6   1.0000     -10.060838      -273.7693
   7   1.0000     -10.056362      -273.6475
   8   1.0000     -10.051995      -273.5287
   9   1.0000     -10.043281      -273.2916
  10   1.0000      -0.808322       -21.9956
  11   1.0000      -0.694240       -18.8912
  12   1.0000      -0.623352       -16.9623
  13   1.0000      -0.587391       -15.9837
  14   1.0000      -0.575433       -15.6583
  15   1.0000      -0.538391       -14.6504
  16   1.0000      -0.444756       -12.1024
  17   1.0000      -0.440408       -11.9841
  18   1.0000      -0.383901       -10.4465
  19   1.0000      -0.329658        -8.9705
  20   1.0000      -0.313482        -8.5303
  21   1.0000      -0.288341        -7.8462
  22   1.0000      -0.288331        -7.8459
  23   1.0000      -0.279044        -7.5932
  24   1.0000      -0.271735        -7.3943
  25   1.0000      -0.260020        -7.0755
  26   1.0000      -0.255770        -6.9598
  27   1.0000      -0.227479        -6.1900
  28   1.0000      -0.216336        -5.8868
  29   1.0000      -0.197781        -5.3819
  30   1.0000      -0.194897        -5.3034
  31   1.0000      -0.166899        -4.5416
  32   1.0000      -0.146217        -3.9788
  33   1.0000      -0.093025        -2.5313
  34   1.0000      -0.061161        -1.6643
  35   1.0000      -0.054319        -1.4781
  36   0.0000       0.143057         3.8928
  37   0.0000       0.173525         4.7219
  38   0.0000       0.199178         5.4199
  39   0.0000       0.218010         5.9324
  40   0.0000       0.228115         6.2073

MULLIKEN ATOMIC CHARGES AND SPIN POPULATIONS
--------------------------------------------
   0 C :   -0.182619    0.204474
   1 C :   -0.139965   -0.123577
   2 C :   -0.025533    0.345069
   3 C :   -0.140630   -0.084989
   4 C :   -0.151126    0.142230
   5 C :    0.014459    0.102773
   6 C :   -0.003999    0.183279
   7 O :   -0.389822    0.245237
   8 C :   -0.326269   -0.025883
   9 H :    0.082174   -0.000642
  10 H :    0.090677    0.011127
  11 H :    0.090384    0.011354
  12 H :    0.049235   -0.009348
  13 H :    0.017330    0.002722
  14 C :   -0.289428   -0.038958
  15 H :    0.089350    0.020828
  16 H :    0.085881    0.001034
  17 H :    0.089325    0.020950
  18 H :    0.013919    0.004693
  19 H :    0.026658   -0.012373
Sum of atomic charges         :   -1.0000000

LOEWDIN ATOMIC CHARGES AND SPIN POPULATIONS
-------------------------------------------
   0 C :   -0.183777    0.158996
   1 C :   -0.158823   -0.061049
   2 C :   -0.153363    0.261273
   3 C :   -0.163896   -0.037491
   4 C :   -0.139813    0.113790
   5 C :   -0.136800    0.111617
   6 C :   -0.051041    0.179676
   7 O :   -0.336116    0.242667
   8 C :   -0.370947   -0.008181
   9 H :    0.106335   -0.000251
  10 H :    0.104851    0.009420
  11 H :    0.104822    0.009626
  12 H :    0.112981   -0.004409
  13 H :    0.094182    0.001238
  14 C :   -0.327626   -0.009595
  15 H :    0.100166    0.017718
  16 H :    0.105019    0.000643
  17 H :    0.100114    0.017813
  18 H :    0.093306    0.002039
  19 H :    0.100425   -0.005539

  Mayer bond orders larger than 0.100000
B(  0-C ,  1-C ) :   1.4693 B(  0-C ,  5-C ) :   1.2123 B(  0-C , 19-H ) :   0.9431
B(  1-C ,  2-C ) :   1.3463 B(  1-C , 18-H ) :   0.9504 B(  2-C ,  3-C ) :   1.2597
B(  2-C , 14-C ) :   1.0927 B(  3-C ,  4-C ) :   1.4996 B(  3-C , 13-H ) :   0.9644
B(  4-C ,  5-C ) :   1.2331 B(  4-C , 12-H ) :   0.9533 B(  5-C ,  6-C ) :   1.2233
B(  6-C ,  7-O ) :   1.8959 B(  6-C ,  8-C ) :   1.0615 B(  8-C ,  9-H ) :   0.9499
B(  8-C , 10-H ) :   0.9335 B(  8-C , 11-H ) :   0.9335 B( 14-C , 15-H ) :   0.9396
B( 14-C , 16-H ) :   0.9564 B( 14-C , 17-H ) :   0.9395

Dispersion correction           -0.017897034
FINAL SINGLE POINT ENERGY      -423.402453058161

DIPOLE MOMENT
-------------

Method             : SCF
Type of density    : Electron Density
Multiplicity       :   2
Irrep              :   0
Energy             :  -423.3845560236635492 Eh
Relativity type    :
Basis              : AO
                                X                 Y                 Z
Electronic contribution:      4.139206354      -3.607958485       0.123203108
Nuclear contribution   :     -5.565601107       4.473854075      -0.154054051
                        -----------------------------------------
Total Dipole Moment    :     -1.426394753       0.865895591      -0.030850943
                        -----------------------------------------
Magnitude (a.u.)       :      1.668930480
Magnitude (Debye)      :      4.242084156

VIBRATIONAL FREQUENCIES
-----------------------

Scaling factor for frequencies =  1.000000000  (already applied!)

     0:       0.00 cm**-1
     1:       0.00 cm**-1
     2:       0.00 cm**-1
     3:       0.00 cm**-1
     4:       0.00 cm**-1
     5:       0.00 cm**-1
     6:      36.73 cm**-1
     7:      95.32 cm**-1
     8:     115.37 cm**-1
     9:     146.62 cm**-1
    10:     184.19 cm**-1
    11:     242.08 cm**-1
    12:     325.31 cm**-1
    13:     345.79 cm**-1
    14:     378.66 cm**-1
    15:     446.52 cm**-1
    16:     466.01 cm**-1
    17:     556.52 cm**-1
    18:     560.41 cm**-1
    19:     647.47 cm**-1
    20:     694.05 cm**-1
    21:     710.16 cm**-1
    22:     769.18 cm**-1
    23:     803.29 cm**-1
    24:     808.40 cm**-1
    25:     927.23 cm**-1
    26:     951.69 cm**-1
    27:     972.87 cm**-1
    28:     983.43 cm**-1
    29:    1001.41 cm**-1
    30:    1004.13 cm**-1
    31:    1046.21 cm**-1
    32:    1070.26 cm**-1
    33:    1117.80 cm**-1
    34:    1175.46 cm**-1
    35:    1250.78 cm**-1
    36:    1293.32 cm**-1
    37:    1342.55 cm**-1
    38:    1353.10 cm**-1
    39:    1373.95 cm**-1
    40:    1401.26 cm**-1
    41:    1454.07 cm**-1
    42:    1456.01 cm**-1
    43:    1459.60 cm**-1
    44:    1471.31 cm**-1
    45:    1481.38 cm**-1
    46:    1518.58 cm**-1
    47:    1536.70 cm**-1
    48:    1637.50 cm**-1
    49:    1704.30 cm**-1
    50:    2950.14 cm**-1
    51:    2976.22 cm**-1
    52:    2992.15 cm**-1
    53:    3041.70 cm**-1
    54:    3084.07 cm**-1
    55:    3122.68 cm**-1
    56:    3124.47 cm**-1
    57:    3125.74 cm**-1
    58:    3179.23 cm**-1
    59:    3200.53 cm**-1

IR SPECTRUM
-----------

 Mode   freq       eps      Int      T**2         TX        TY        TZ
       cm**-1   L/(mol*cm) km/mol    a.u.
----------------------------------------------------------------------------
  6:     36.73   0.000008    0.04  0.000069  (-0.000220  0.000160  0.008308)
  7:     95.32   0.000057    0.29  0.000186  (-0.000013 -0.000483 -0.013626)
  8:    115.37   0.000277    1.40  0.000749  ( 0.000283 -0.000834 -0.027349)
  9:    146.62   0.000175    0.88  0.000372  (-0.000611  0.000611  0.019264)
 10:    184.19   0.000583    2.95  0.000988  ( 0.031396 -0.001275  0.000387)
 11:    242.08   0.000454    2.29  0.000585  ( 0.000031 -0.000797 -0.024175)
 12:    325.31   0.000044    0.22  0.000042  ( 0.006486  0.000312  0.000135)
 13:    345.79   0.000911    4.60  0.000822  ( 0.027388  0.008475 -0.000200)
 14:    378.66   0.001482    7.49  0.001221  (-0.000197  0.001227  0.034928)
 15:    446.52   0.000012    0.06  0.000009  (-0.000061 -0.000151 -0.002927)
 16:    466.01   0.000612    3.09  0.000410  (-0.017300  0.010516 -0.000374)
 17:    556.52   0.001793    9.06  0.001006  (-0.001433  0.000103  0.031679)
 18:    560.41   0.001391    7.03  0.000775  ( 0.023272  0.015159  0.001770)
 19:    647.47   0.000061    0.31  0.000029  (-0.000754 -0.005360  0.000154)
 20:    694.05   0.000374    1.89  0.000168  ( 0.011632 -0.005711  0.000162)
 21:    710.16   0.000763    3.85  0.000335  (-0.000183 -0.000682 -0.018292)
 22:    769.18   0.003437   17.37  0.001394  ( 0.000238 -0.001357 -0.037316)
 23:    803.29   0.001774    8.96  0.000689  ( 0.026245 -0.000532  0.000080)
 24:    808.40   0.002001   10.11  0.000772  ( 0.000063 -0.000967 -0.027774)
 25:    927.23   0.000003    0.01  0.000001  ( 0.000125 -0.000029  0.000943)
 26:    951.69   0.016161   81.67  0.005299  ( 0.072412  0.007469 -0.000165)
 27:    972.87   0.000105    0.53  0.000034  (-0.000024  0.000237  0.005786)
 28:    983.43   0.002893   14.62  0.000918  (-0.028944 -0.008948  0.000283)
 29:   1001.41   0.007053   35.64  0.002198  ( 0.045672  0.010576 -0.000310)
 30:   1004.13   0.000313    1.58  0.000097  (-0.000265  0.000284  0.009857)
 31:   1046.21   0.000394    1.99  0.000117  (-0.000233 -0.000345 -0.010828)
 32:   1070.26   0.000248    1.25  0.000072  (-0.003584 -0.007706  0.000252)
 33:   1117.80   0.003561   18.00  0.000994  ( 0.012507 -0.028928  0.001016)
 34:   1175.46   0.002582   13.05  0.000685  (-0.026173  0.000658 -0.000009)
 35:   1250.78   0.003933   19.88  0.000981  (-0.031083  0.003888 -0.000175)
 36:   1293.32   0.003450   17.43  0.000832  (-0.027402  0.009025 -0.000302)
 37:   1342.55   0.000888    4.49  0.000206  ( 0.009315  0.010935 -0.000387)
 38:   1353.10   0.003879   19.60  0.000895  ( 0.016537 -0.024911  0.000806)
 39:   1373.95   0.006905   34.90  0.001568  (-0.016095 -0.036166  0.001174)
 40:   1401.26   0.011950   60.39  0.002661  ( 0.051564  0.001608  0.000037)
 41:   1454.07   0.009593   48.48  0.002059  (-0.044950  0.006179 -0.000325)
 42:   1456.01   0.000581    2.94  0.000125  ( 0.000066 -0.000366 -0.011154)
 43:   1459.60   0.000537    2.71  0.000115  (-0.000313  0.000771  0.010679)
 44:   1471.31   0.002521   12.74  0.000535  (-0.019681  0.012129 -0.000534)
 45:   1481.38   0.006020   30.42  0.001268  (-0.025993  0.024326 -0.000879)
 46:   1518.58   0.008537   43.14  0.001754  (-0.040640 -0.010129  0.000271)
 47:   1536.70   0.005170   26.13  0.001050  ( 0.026118 -0.019168  0.000637)
 48:   1637.50   0.095487  482.55  0.018197  (-0.129776  0.036788 -0.001390)
 49:   1704.30   0.008351   42.20  0.001529  (-0.019546  0.033850 -0.001154)
 50:   2950.14   0.077230  390.29  0.008169  ( 0.089146  0.014912 -0.000152)
 51:   2976.22   0.018226   92.11  0.001911  (-0.031934 -0.029820  0.001443)
 52:   2992.15   0.014421   72.88  0.001504  (-0.000429  0.001267  0.038759)
 53:   3041.70   0.009757   49.31  0.001001  ( 0.000047  0.001379  0.031609)
 54:   3084.07   0.005417   27.37  0.000548  (-0.000010 -0.023399  0.000781)
 55:   3122.68   0.015718   79.43  0.001571  ( 0.015326 -0.036527  0.001270)
 56:   3124.47   0.005029   25.41  0.000502  ( 0.021673  0.005704 -0.000104)
 57:   3125.74   0.006606   33.38  0.000659  ( 0.022890  0.011636 -0.000380)
 58:   3179.23   0.007581   38.31  0.000744  (-0.005196 -0.026764  0.000895)
 59:   3200.53   0.002594   13.11  0.000253  (-0.003732 -0.015451  0.000503)

--------------------------
THERMOCHEMISTRY AT 298.15K
--------------------------

Temperature         ...   298.15 K
Pressure            ...     1.00 atm
Total Mass          ...   134.18 AMU
Quasi RRHO          ...     True
Cut-Off Frequency   ...     1.00 cm^-1

Throughout the following assumptions are being made:
  (1) The electronic state is orbitally nondegenerate
      but the spin degeneracy is treated
  (2) There are no thermally accessible electronically excited states
  (3) Hindered rotations indicated by low frequency modes are not
      treated as such but are treated as vibrations and this may
      cause some error
  (4) All equations used are the standard statistical mechanics
      equations for an ideal gas
  (5) All vibrations are strictly harmonic

freq.      36.73  E(vib)   ...       0.54
freq.      95.32  E(vib)   ...       0.47
freq.     115.37  E(vib)   ...       0.44
freq.     146.62  E(vib)   ...       0.41
freq.     184.19  E(vib)   ...       0.37
freq.     242.08  E(vib)   ...       0.31
freq.     325.31  E(vib)   ...       0.24
freq.     345.79  E(vib)   ...       0.23
freq.     378.66  E(vib)   ...       0.21
freq.     446.52  E(vib)   ...       0.17
freq.     466.01  E(vib)   ...       0.16
freq.     556.52  E(vib)   ...       0.12
freq.     560.41  E(vib)   ...       0.11
freq.     647.47  E(vib)   ...       0.09
freq.     694.05  E(vib)   ...       0.07
freq.     710.16  E(vib)   ...       0.07
freq.     769.18  E(vib)   ...       0.06
freq.     803.29  E(vib)   ...       0.05
freq.     808.40  E(vib)   ...       0.05
freq.     927.23  E(vib)   ...       0.03
freq.     951.69  E(vib)   ...       0.03
freq.     972.87  E(vib)   ...       0.03
freq.     983.43  E(vib)   ...       0.02
freq.    1001.41  E(vib)   ...       0.02
freq.    1004.13  E(vib)   ...       0.02
freq.    1046.21  E(vib)   ...       0.02
freq.    1070.26  E(vib)   ...       0.02
freq.    1117.80  E(vib)   ...       0.01
freq.    1175.46  E(vib)   ...       0.01
freq.    1250.78  E(vib)   ...       0.01
freq.    1293.32  E(vib)   ...       0.01
freq.    1342.55  E(vib)   ...       0.01
freq.    1353.10  E(vib)   ...       0.01
freq.    1373.95  E(vib)   ...       0.01
freq.    1401.26  E(vib)   ...       0.00
freq.    1454.07  E(vib)   ...       0.00
freq.    1456.01  E(vib)   ...       0.00
freq.    1459.60  E(vib)   ...       0.00
freq.    1471.31  E(vib)   ...       0.00
freq.    1481.38  E(vib)   ...       0.00
freq.    1518.58  E(vib)   ...       0.00
freq.    1536.70  E(vib)   ...       0.00
freq.    1637.50  E(vib)   ...       0.00
freq.    1704.30  E(vib)   ...       0.00
freq.    2950.14  E(vib)   ...       0.00
freq.    2976.22  E(vib)   ...       0.00
freq.    2992.15  E(vib)   ...       0.00
freq.    3041.70  E(vib)   ...       0.00
freq.    3084.07  E(vib)   ...       0.00
freq.    3122.68  E(vib)   ...       0.00
freq.    3124.47  E(vib)   ...       0.00
freq.    3125.74  E(vib)   ...       0.00
freq.    3179.23  E(vib)   ...       0.00
freq.    3200.53  E(vib)   ...       0.00

------------
INNER ENERGY
------------

The inner energy is: U= E(el) + E(ZPE) + E(vib) + E(rot) + E(trans)
    E(el)   - is the total energy from the electronic structure calculation
              = E(kin-el) + E(nuc-el) + E(el-el) + E(nuc-nuc)
    E(ZPE)  - the the zero temperature vibrational energy from the frequency calculation
    E(vib)  - the the finite temperature correction to E(ZPE) due to population
              of excited vibrational states
    E(rot)  - is the rotational thermal energy
    E(trans)- is the translational thermal energy

Summary of contributions to the inner energy U:
Electronic energy                ...   -423.40245306 Eh
Zero point energy                ...      0.16200944 Eh     101.66 kcal/mol
Thermal vibrational correction   ...      0.00706620 Eh       4.43 kcal/mol
Thermal rotational correction    ...      0.00141627 Eh       0.89 kcal/mol
Thermal translational correction ...      0.00141627 Eh       0.89 kcal/mol
-----------------------------------------------------------------------
Total thermal energy                   -423.23054487 Eh

Summary of corrections to the electronic energy:
(perhaps to be used in another calculation)
Total thermal correction                  0.00989874 Eh       6.21 kcal/mol
Non-thermal (ZPE) correction              0.16200944 Eh     101.66 kcal/mol
-----------------------------------------------------------------------
Total correction                          0.17190818 Eh     107.87 kcal/mol

--------
ENTHALPY
--------

The enthalpy is H = U + kB*T
                kB is Boltzmann's constant
Total thermal energy              ...   -423.23054487 Eh
Thermal Enthalpy correction       ...      0.00094421 Eh       0.59 kcal/mol
-----------------------------------------------------------------------
Total Enthalpy                    ...   -423.22960067 Eh

Note: Only C1 symmetry has been detected, increase convergence thresholds
      if your molecule has a higher symmetry. Symmetry factor of 1.0 is
      used for the rotational entropy correction.

Note: Rotational entropy computed according to Herzberg
Infrared and Raman Spectra, Chapter V,1, Van Nostrand Reinhold, 1945
Point Group:  C1, Symmetry Number:   1
Rotational constants in cm-1:     0.119092     0.025902     0.021447

Vibrational entropy computed according to the QRRHO of S. Grimme
Chem.Eur.J. 2012 18 9955 using a reference frequency of 100.0 cm-1

-------
ENTROPY
-------

The entropy contributions are T*S = T*(S(el)+S(vib)+S(rot)+S(trans))
     S(el)   - electronic entropy
     S(vib)  - vibrational entropy
     S(rot)  - rotational entropy
     S(trans)- translational entropy
The entropies will be listed as multiplied by the temperature to get
units of energy

Electronic entropy                ...      0.00065446 Eh      0.41 kcal/mol
Vibrational entropy               ...      0.01221728 Eh      7.67 kcal/mol
Rotational entropy                ...      0.01405397 Eh      8.82 kcal/mol
Translational entropy             ...      0.01928762 Eh     12.10 kcal/mol
-----------------------------------------------------------------------
Final entropy term                ...      0.04621333 Eh     29.00 kcal/mol

In case the symmetry of your molecule has not been determined correctly
or in case you have a reason to use a different symmetry number we print
out the resulting rotational entropy values for sn=1,12:

 non-linear molecules -----------------------------------
|  sn= 1 | S(rot)=       0.01405397 Eh      8.82 kcal/mol|
|  sn= 2 | S(rot)=       0.01339952 Eh      8.41 kcal/mol|
|  sn= 3 | S(rot)=       0.01301669 Eh      8.17 kcal/mol|
|  sn= 4 | S(rot)=       0.01274506 Eh      8.00 kcal/mol|
|  sn= 5 | S(rot)=       0.01253437 Eh      7.87 kcal/mol|

                             ****ORCA TERMINATED NORMALLY****
TOTAL RUN TIME: 0 days 0 hours 16 minutes 39 seconds 54 msec
