                         Program Version 6.0.0  -   RELEASE  -
|  1> !r2SCAN freq aug-cc-pVTZ d3 TightSCF SlowConv RIJCOSX defgrid2
|  2>
|  3> %pal
|  4> nprocs 12
|  5> end
|  6>
|  7> %scf
|  8> MaxIter 1500
|  9> end
| 10>
| 11> %maxcore 5000
| 12>
| 13> !CPCM
| 14> %cpcm smd true
| 15> SMDsolvent "MeCN"
| 16> surfacetype gepol_ses
| 17> rsolv 2.19
| 18> end
| 19>
| 20> * xyz -1 2
| 21> C           0.68433630663079     -1.22960956684883     -0.00238960875808
| 22> C          -0.68874145335648     -1.22498760907054     -0.00113636808568
| 23> C          -1.38787991774136      0.00382706301561      0.00006026732043
| 24> C          -0.66221578670821      1.21496886998074     -0.00091661444305
| 25> C           0.71402238778154      1.19041623228467     -0.00218837304004
| 26> C           1.43260956923325     -0.02783911944480     -0.00277792322059
| 27> C           2.89005557847109     -0.08353969668668     -0.00381927092700
| 28> O           3.49973845463015     -1.16344813624428     -0.00527637264482
| 29> C           3.66442304976772      1.21359745522604     -0.00198102782483
| 30> H           3.42635136023142      1.81707330248382      0.87801924925868
| 31> H           4.73023488820022      0.99282322649189     -0.00417800450894
| 32> H           3.42372213728411      1.82131021704802     -0.87824088958464
| 33> H           1.24822541463086      2.13272089918993     -0.00306727185407
| 34> H          -1.20470441604574      2.14985539005183     -0.00048644451299
| 35> N          -2.78211428993464      0.01914520038021      0.00233410805724
| 36> O          -3.39154134496408      1.13535867594920      0.00391790715769
| 37> O          -3.41610734725044     -1.08342660326893      0.00401353883624
| 38> H          -1.25380788266083     -2.14670676615860     -0.00089581787121
| 39> H           1.22435879180062     -2.16898883437929     -0.00307658335435
| 40> *
| 41>
| 42>                          ****END OF INPUT****

CARTESIAN COORDINATES (ANGSTROEM)
---------------------------------
  C      0.684336   -1.229610   -0.002390
  C     -0.688741   -1.224988   -0.001136
  C     -1.387880    0.003827    0.000060
  C     -0.662216    1.214969   -0.000917
  C      0.714022    1.190416   -0.002188
  C      1.432610   -0.027839   -0.002778
  C      2.890056   -0.083540   -0.003819
  O      3.499738   -1.163448   -0.005276
  C      3.664423    1.213597   -0.001981
  H      3.426351    1.817073    0.878019
  H      4.730235    0.992823   -0.004178
  H      3.423722    1.821310   -0.878241
  H      1.248225    2.132721   -0.003067
  H     -1.204704    2.149855   -0.000486
  N     -2.782114    0.019145    0.002334
  O     -3.391541    1.135359    0.003918
  O     -3.416107   -1.083427    0.004014
  H     -1.253808   -2.146707   -0.000896
  H      1.224359   -2.168989   -0.003077

 Total Charge           Charge          ....   -1
 Multiplicity           Mult            ....    2
 Number of Electrons    NEL             ....   87
 Basis Dimension        Dim             ....  713

ORBITAL ENERGIES
----------------
                 SPIN UP ORBITALS
  NO   OCC          E(Eh)            E(eV)
   0   1.0000     -18.925624      -514.9924
   1   1.0000     -18.925611      -514.9920
   2   1.0000     -18.916875      -514.7543
   3   1.0000     -14.318774      -389.6337
   4   1.0000     -10.097555      -274.7685
   5   1.0000     -10.065246      -273.8893
   6   1.0000     -10.034228      -273.0452
   7   1.0000     -10.031559      -272.9726
   8   1.0000     -10.031292      -272.9653
   9   1.0000     -10.030999      -272.9574
  10   1.0000     -10.030586      -272.9461
  11   1.0000     -10.015791      -272.5435
  12   1.0000      -1.105807       -30.0905
  13   1.0000      -0.973228       -26.4829
  14   1.0000      -0.935402       -25.4536
  15   1.0000      -0.824752       -22.4426
  16   1.0000      -0.754884       -20.5414
  17   1.0000      -0.713213       -19.4075
  18   1.0000      -0.694854       -18.9079
  19   1.0000      -0.647486       -17.6190
  20   1.0000      -0.564914       -15.3721
  21   1.0000      -0.551193       -14.9987
  22   1.0000      -0.508191       -13.8286
  23   1.0000      -0.475791       -12.9469
  24   1.0000      -0.449037       -12.2189
  25   1.0000      -0.441198       -12.0056
  26   1.0000      -0.427933       -11.6447
  27   1.0000      -0.405173       -11.0253
  28   1.0000      -0.402227       -10.9452
  29   1.0000      -0.397616       -10.8197
  30   1.0000      -0.382748       -10.4151
  31   1.0000      -0.362479        -9.8636
  32   1.0000      -0.359257        -9.7759
  33   1.0000      -0.340809        -9.2739
  34   1.0000      -0.329164        -8.9570
  35   1.0000      -0.311393        -8.4734
  36   1.0000      -0.295687        -8.0460
  37   1.0000      -0.248712        -6.7678
  38   1.0000      -0.238124        -6.4797
  39   1.0000      -0.235859        -6.4180
  40   1.0000      -0.235739        -6.4148
  41   1.0000      -0.206037        -5.6066
  42   1.0000      -0.202796        -5.5184
  43   1.0000      -0.120070        -3.2673
  44   0.0000      -0.055747        -1.5170
  45   0.0000      -0.029693        -0.8080
  46   0.0000       0.005150         0.1401
  47   0.0000       0.019552         0.5320
  48   0.0000       0.023719         0.6454

                 SPIN DOWN ORBITALS
  NO   OCC          E(Eh)            E(eV)
   0   1.0000     -18.920573      -514.8550
   1   1.0000     -18.920496      -514.8529
   2   1.0000     -18.913810      -514.6709
   3   1.0000     -14.312985      -389.4761
   4   1.0000     -10.096497      -274.7397
   5   1.0000     -10.064080      -273.8575
   6   1.0000     -10.034602      -273.0554
   7   1.0000     -10.031176      -272.9622
   8   1.0000     -10.030105      -272.9330
   9   1.0000     -10.029813      -272.9251
  10   1.0000     -10.028247      -272.8825
  11   1.0000     -10.015876      -272.5458
  12   1.0000      -1.097500       -29.8645
  13   1.0000      -0.968490       -26.3539
  14   1.0000      -0.927914       -25.2498
  15   1.0000      -0.821273       -22.3480
  16   1.0000      -0.748141       -20.3580
  17   1.0000      -0.710654       -19.3379
  18   1.0000      -0.691477       -18.8161
  19   1.0000      -0.640790       -17.4368
  20   1.0000      -0.564300       -15.3554
  21   1.0000      -0.546243       -14.8640
  22   1.0000      -0.506032       -13.7698
  23   1.0000      -0.470408       -12.8004
  24   1.0000      -0.437994       -11.9184
  25   1.0000      -0.425711       -11.5842
  26   1.0000      -0.424025       -11.5383
  27   1.0000      -0.402578       -10.9547
  28   1.0000      -0.400515       -10.8986
  29   1.0000      -0.391796       -10.6613
  30   1.0000      -0.382135       -10.3984
  31   1.0000      -0.360928        -9.8214
  32   1.0000      -0.358416        -9.7530
  33   1.0000      -0.333745        -9.0817
  34   1.0000      -0.327832        -8.9208
  35   1.0000      -0.301793        -8.2122
  36   1.0000      -0.295090        -8.0298
  37   1.0000      -0.236132        -6.4255
  38   1.0000      -0.231378        -6.2961
  39   1.0000      -0.223315        -6.0767
  40   1.0000      -0.218892        -5.9564
  41   1.0000      -0.201786        -5.4909
  42   1.0000      -0.199916        -5.4400
  43   0.0000      -0.093761        -2.5514
  44   0.0000      -0.035321        -0.9611
  45   0.0000      -0.026318        -0.7161
  46   0.0000       0.006612         0.1799
  47   0.0000       0.020736         0.5642

MULLIKEN ATOMIC CHARGES AND SPIN POPULATIONS
--------------------------------------------
   0 C :   -0.892157   -0.038077
   1 C :   -0.348028    0.109942
   2 C :    0.480840   -0.009573
   3 C :   -0.633282    0.122758
   4 C :   -0.340642   -0.039022
   5 C :    1.322641    0.209362
   6 C :    0.690881    0.052723
   7 O :   -1.026563    0.102272
   8 C :   -0.540799   -0.020526
   9 H :    0.225196    0.007518
  10 H :    0.150627   -0.002375
  11 H :    0.224504    0.007497
  12 H :   -0.086338   -0.006801
  13 H :    0.412052    0.003150
  14 N :    0.541294    0.152818
  15 O :   -0.807051    0.177748
  16 O :   -0.807186    0.180539
  17 H :    0.481478    0.000602
  18 H :   -0.047464   -0.010556
Sum of atomic charges         :   -1.0000000

LOEWDIN ATOMIC CHARGES AND SPIN POPULATIONS
-------------------------------------------
   0 C :    0.176493    0.025343
   1 C :    0.182197    0.047843
   2 C :   -0.308276    0.070892
   3 C :    0.186978    0.053889
   4 C :    0.187456    0.027698
   5 C :   -0.161990    0.086951
   6 C :   -0.587928    0.070140
   7 O :    0.428597    0.085650
   8 C :    0.555725    0.010075
   9 H :   -0.171728    0.002386
  10 H :   -0.191611   -0.000138
  11 H :   -0.172032    0.002379
  12 H :   -0.194467   -0.000075
  13 H :   -0.217040    0.010883
  14 N :   -0.816864    0.179361
  15 O :    0.261653    0.157635
  16 O :    0.261855    0.159845
  17 H :   -0.217730    0.009399
  18 H :   -0.201288   -0.000159

  Mayer bond orders larger than 0.100000
B(  0-C ,  1-C ) :   1.3862 B(  0-C ,  2-C ) :  -0.3838 B(  0-C ,  3-C ) :  -0.1208
B(  0-C ,  4-C ) :  -0.5041 B(  0-C ,  6-C ) :   0.3046 B(  0-C , 12-H ) :   0.1059
B(  0-C , 16-O ) :  -0.1482 B(  0-C , 18-H ) :   1.3242 B(  1-C ,  2-C ) :   0.7612
B(  1-C ,  3-C ) :   0.1997 B(  1-C ,  4-C ) :  -0.2500 B(  1-C ,  5-C ) :   0.2719
B(  1-C , 14-N ) :  -0.1737 B(  1-C , 16-O ) :  -0.1017 B(  1-C , 17-H ) :   0.3489
B(  2-C ,  3-C ) :   0.5872 B(  2-C ,  4-C ) :  -0.3140 B(  2-C , 14-N ) :   1.3704
B(  2-C , 15-O ) :   0.4198 B(  2-C , 16-O ) :   0.4504 B(  3-C ,  4-C ) :   0.8954
B(  3-C ,  5-C ) :   0.3002 B(  3-C , 13-H ) :   0.4496 B(  3-C , 14-N ) :  -0.2452
B(  4-C ,  5-C ) :   0.3422 B(  4-C ,  6-C ) :   0.1694 B(  4-C , 12-H ) :   1.5209
B(  4-C , 15-O ) :  -0.1303 B(  5-C ,  6-C ) :   0.3328 B(  5-C ,  7-O ) :   0.2767
B(  5-C , 12-H ) :  -0.2957 B(  5-C , 18-H ) :  -0.1869 B(  6-C ,  7-O ) :   0.7068
B(  6-C ,  8-C ) :   0.9014 B(  7-O , 18-H ) :   0.1638 B(  8-C ,  9-H ) :   0.9806
B(  8-C , 10-H ) :   0.9504 B(  8-C , 11-H ) :   0.9814 B( 12-H , 18-H ) :   0.1080
B( 14-N , 15-O ) :   0.8466 B( 14-N , 16-O ) :   0.8402 B( 15-O , 16-O ) :   0.1187

Dispersion correction           -0.006335082
FINAL SINGLE POINT ENERGY      -589.467074762004

DIPOLE MOMENT
-------------

Method             : SCF
Type of density    : Electron Density
Multiplicity       :   2
Irrep              :   0
Energy             :  -589.4607396802191488 Eh
Relativity type    :
Basis              : AO
                                X                 Y                 Z
Electronic contribution:     -7.860041166      -2.957340905       0.003056902
Nuclear contribution   :     10.828268237       4.304955823      -0.006376201
                        -----------------------------------------
Total Dipole Moment    :      2.968227070       1.347614919      -0.003319300
                        -----------------------------------------
Magnitude (a.u.)       :      3.259823451
Magnitude (Debye)      :      8.285812727

VIBRATIONAL FREQUENCIES
-----------------------

Scaling factor for frequencies =  1.000000000  (already applied!)

     0:       0.00 cm**-1
     1:       0.00 cm**-1
     2:       0.00 cm**-1
     3:       0.00 cm**-1
     4:       0.00 cm**-1
     5:       0.00 cm**-1
     6:      64.45 cm**-1
     7:      71.67 cm**-1
     8:     104.29 cm**-1
     9:     142.54 cm**-1
    10:     159.13 cm**-1
    11:     223.74 cm**-1
    12:     272.06 cm**-1
    13:     298.17 cm**-1
    14:     401.58 cm**-1
    15:     441.46 cm**-1
    16:     443.25 cm**-1
    17:     516.80 cm**-1
    18:     543.45 cm**-1
    19:     575.62 cm**-1
    20:     614.60 cm**-1
    21:     619.63 cm**-1
    22:     635.80 cm**-1
    23:     726.09 cm**-1
    24:     732.26 cm**-1
    25:     810.89 cm**-1
    26:     818.30 cm**-1
    27:     828.24 cm**-1
    28:     945.08 cm**-1
    29:     971.30 cm**-1
    30:     990.76 cm**-1
    31:     997.73 cm**-1
    32:    1016.94 cm**-1
    33:    1064.59 cm**-1
    34:    1097.37 cm**-1
    35:    1109.88 cm**-1
    36:    1176.36 cm**-1
    37:    1287.89 cm**-1
    38:    1292.15 cm**-1
    39:    1316.30 cm**-1
    40:    1350.46 cm**-1
    41:    1356.15 cm**-1
    42:    1383.00 cm**-1
    43:    1440.53 cm**-1
    44:    1448.92 cm**-1
    45:    1463.82 cm**-1
    46:    1489.33 cm**-1
    47:    1538.13 cm**-1
    48:    1601.89 cm**-1
    49:    1630.50 cm**-1
    50:    3021.76 cm**-1
    51:    3084.63 cm**-1
    52:    3131.64 cm**-1
    53:    3173.47 cm**-1
    54:    3175.44 cm**-1
    55:    3204.55 cm**-1
    56:    3207.80 cm**-1

IR SPECTRUM
-----------

 Mode   freq       eps      Int      T**2         TX        TY        TZ
       cm**-1   L/(mol*cm) km/mol    a.u.
----------------------------------------------------------------------------
  6:     64.45   0.000714    3.61  0.003457  ( 0.000107  0.000403  0.058795)
  7:     71.67   0.001865    9.42  0.008120  (-0.001053  0.000424  0.090102)
  8:    104.29   0.000252    1.27  0.000753  ( 0.000631  0.000731 -0.027432)
  9:    142.54   0.000119    0.60  0.000260  (-0.001053 -0.000586 -0.016069)
 10:    159.13   0.002234   11.29  0.004381  ( 0.047468  0.046122 -0.000330)
 11:    223.74   0.000452    2.28  0.000630  ( 0.000338  0.000007 -0.025101)
 12:    272.06   0.001791    9.05  0.002054  (-0.041295  0.018672 -0.000061)
 13:    298.17   0.000731    3.69  0.000765  ( 0.026464 -0.008053 -0.000032)
 14:    401.58   0.000822    4.15  0.000639  ( 0.000580  0.000219 -0.025266)
 15:    441.46   0.000050    0.25  0.000035  ( 0.001346  0.002409 -0.005242)
 16:    443.25   0.001437    7.26  0.001011  (-0.016509 -0.027180 -0.000320)
 17:    516.80   0.008816   44.55  0.005324  (-0.072538  0.007866  0.000133)
 18:    543.45   0.003243   16.39  0.001862  (-0.036549 -0.022945  0.000010)
 19:    575.62   0.000527    2.66  0.000286  ( 0.000412  0.000136  0.016892)
 20:    614.60   0.010340   52.26  0.005250  (-0.000741 -0.000051  0.072455)
 21:    619.63   0.003146   15.90  0.001585  (-0.036359 -0.016202 -0.000225)
 22:    635.80   0.000074    0.37  0.000036  ( 0.005785 -0.001689  0.000078)
 23:    726.09   0.010993   55.55  0.004725  ( 0.068588 -0.004498  0.000014)
 24:    732.26   0.000002    0.01  0.000001  ( 0.000227 -0.000048  0.000854)
 25:    810.89   0.005822   29.42  0.002241  ( 0.001014  0.000078 -0.047325)
 26:    818.30   0.019490   98.49  0.007433  ( 0.086130 -0.003778  0.000193)
 27:    828.24   0.016620   83.99  0.006262  ( 0.000053  0.000174 -0.079134)
 28:    945.08   0.085946  434.34  0.028379  (-0.167169 -0.020825  0.000040)
 29:    971.30   0.000047    0.24  0.000015  ( 0.002505 -0.000057  0.002994)
 30:    990.76   0.000050    0.25  0.000016  ( 0.000050  0.000403  0.003963)
 31:    997.73   0.011135   56.27  0.003483  (-0.059000 -0.001297  0.000179)
 32:   1016.94   0.000582    2.94  0.000179  ( 0.000526  0.000150  0.013354)
 33:   1064.59   0.123708  625.17  0.036263  (-0.189800  0.015440  0.000135)
 34:   1097.37   0.094541  477.77  0.026885  ( 0.163671  0.009832 -0.000137)
 35:   1109.88   0.014068   71.09  0.003955  (-0.037789  0.050273 -0.000033)
 36:   1176.36   0.007315   36.97  0.001941  ( 0.044052 -0.000092 -0.000088)
 37:   1287.89   0.386840  1954.93  0.093734  ( 0.305435  0.021060 -0.000280)
 38:   1292.15   0.017876   90.34  0.004317  (-0.011138  0.064755 -0.000046)
 39:   1316.30   0.085173  430.43  0.020193  ( 0.073569 -0.121574 -0.000093)
 40:   1350.46   0.204974  1035.86  0.047365  (-0.217131 -0.014813  0.000297)
 41:   1356.15   0.008154   41.21  0.001876  (-0.041967  0.010732 -0.000007)
 42:   1383.00   0.029987  151.54  0.006766  (-0.016935 -0.080496  0.000011)
 43:   1440.53   0.013116   66.28  0.002841  ( 0.038421 -0.036947  0.000044)
 44:   1448.92   0.002862   14.46  0.000616  ( 0.000153 -0.000550 -0.024821)
 45:   1463.82   0.001558    7.87  0.000332  (-0.011871 -0.013825  0.000108)
 46:   1489.33   0.073076  369.29  0.015312  ( 0.123453 -0.008429 -0.000124)
 47:   1538.13   0.012584   63.59  0.002553  ( 0.045490 -0.021992 -0.000006)
 48:   1601.89   0.253325  1280.20  0.049350  (-0.206067  0.082985  0.000314)
 49:   1630.50   0.015132   76.47  0.002896  (-0.028618  0.045575 -0.000012)
 50:   3021.76   0.004501   22.75  0.000465  (-0.018219 -0.011529 -0.000058)
 51:   3084.63   0.003122   15.78  0.000316  ( 0.000124  0.000224 -0.017769)
 52:   3131.64   0.007394   37.37  0.000737  ( 0.026778 -0.004439  0.000062)
 53:   3173.47   0.001836    9.28  0.000181  ( 0.001673  0.013332 -0.000044)
 54:   3175.44   0.002014   10.18  0.000198  ( 0.005002  0.013149  0.000065)
 55:   3204.55   0.001810    9.15  0.000176  ( 0.002972 -0.012940 -0.000043)
 56:   3207.80   0.001174    5.93  0.000114  (-0.005745 -0.009010  0.000044)

--------------------------
THERMOCHEMISTRY AT 298.15K
--------------------------

Temperature         ...   298.15 K
Pressure            ...     1.00 atm
Total Mass          ...   165.15 AMU
Quasi RRHO          ...     True
Cut-Off Frequency   ...     1.00 cm^-1

Throughout the following assumptions are being made:
  (1) The electronic state is orbitally nondegenerate
      but the spin degeneracy is treated
  (2) There are no thermally accessible electronically excited states
  (3) Hindered rotations indicated by low frequency modes are not
      treated as such but are treated as vibrations and this may
      cause some error
  (4) All equations used are the standard statistical mechanics
      equations for an ideal gas
  (5) All vibrations are strictly harmonic

freq.      64.45  E(vib)   ...       0.51
freq.      71.67  E(vib)   ...       0.50
freq.     104.29  E(vib)   ...       0.46
freq.     142.54  E(vib)   ...       0.41
freq.     159.13  E(vib)   ...       0.39
freq.     223.74  E(vib)   ...       0.33
freq.     272.06  E(vib)   ...       0.29
freq.     298.17  E(vib)   ...       0.27
freq.     401.58  E(vib)   ...       0.19
freq.     441.46  E(vib)   ...       0.17
freq.     443.25  E(vib)   ...       0.17
freq.     516.80  E(vib)   ...       0.13
freq.     543.45  E(vib)   ...       0.12
freq.     575.62  E(vib)   ...       0.11
freq.     614.60  E(vib)   ...       0.10
freq.     619.63  E(vib)   ...       0.09
freq.     635.80  E(vib)   ...       0.09
freq.     726.09  E(vib)   ...       0.06
freq.     732.26  E(vib)   ...       0.06
freq.     810.89  E(vib)   ...       0.05
freq.     818.30  E(vib)   ...       0.05
freq.     828.24  E(vib)   ...       0.04
freq.     945.08  E(vib)   ...       0.03
freq.     971.30  E(vib)   ...       0.03
freq.     990.76  E(vib)   ...       0.02
freq.     997.73  E(vib)   ...       0.02
freq.    1016.94  E(vib)   ...       0.02
freq.    1064.59  E(vib)   ...       0.02
freq.    1097.37  E(vib)   ...       0.02
freq.    1109.88  E(vib)   ...       0.02
freq.    1176.36  E(vib)   ...       0.01
freq.    1287.89  E(vib)   ...       0.01
freq.    1292.15  E(vib)   ...       0.01
freq.    1316.30  E(vib)   ...       0.01
freq.    1350.46  E(vib)   ...       0.01
freq.    1356.15  E(vib)   ...       0.01
freq.    1383.00  E(vib)   ...       0.01
freq.    1440.53  E(vib)   ...       0.00
freq.    1448.92  E(vib)   ...       0.00
freq.    1463.82  E(vib)   ...       0.00
freq.    1489.33  E(vib)   ...       0.00
freq.    1538.13  E(vib)   ...       0.00
freq.    1601.89  E(vib)   ...       0.00
freq.    1630.50  E(vib)   ...       0.00
freq.    3021.76  E(vib)   ...       0.00
freq.    3084.63  E(vib)   ...       0.00
freq.    3131.64  E(vib)   ...       0.00
freq.    3173.47  E(vib)   ...       0.00
freq.    3175.44  E(vib)   ...       0.00
freq.    3204.55  E(vib)   ...       0.00
freq.    3207.80  E(vib)   ...       0.00

------------
INNER ENERGY
------------

The inner energy is: U= E(el) + E(ZPE) + E(vib) + E(rot) + E(trans)
    E(el)   - is the total energy from the electronic structure calculation
              = E(kin-el) + E(nuc-el) + E(el-el) + E(nuc-nuc)
    E(ZPE)  - the the zero temperature vibrational energy from the frequency calculation
    E(vib)  - the the finite temperature correction to E(ZPE) due to population
              of excited vibrational states
    E(rot)  - is the rotational thermal energy
    E(trans)- is the translational thermal energy

Summary of contributions to the inner energy U:
Electronic energy                ...   -589.46707476 Eh
Zero point energy                ...      0.13671826 Eh      85.79 kcal/mol
Thermal vibrational correction   ...      0.00768865 Eh       4.82 kcal/mol
Thermal rotational correction    ...      0.00141627 Eh       0.89 kcal/mol
Thermal translational correction ...      0.00141627 Eh       0.89 kcal/mol
-----------------------------------------------------------------------
Total thermal energy                   -589.31983531 Eh

Summary of corrections to the electronic energy:
(perhaps to be used in another calculation)
Total thermal correction                  0.01052119 Eh       6.60 kcal/mol
Non-thermal (ZPE) correction              0.13671826 Eh      85.79 kcal/mol
-----------------------------------------------------------------------
Total correction                          0.14723945 Eh      92.39 kcal/mol

--------
ENTHALPY
--------

The enthalpy is H = U + kB*T
                kB is Boltzmann's constant
Total thermal energy              ...   -589.31983531 Eh
Thermal Enthalpy correction       ...      0.00094421 Eh       0.59 kcal/mol
-----------------------------------------------------------------------
Total Enthalpy                    ...   -589.31889110 Eh

Note: Only C1 symmetry has been detected, increase convergence thresholds
      if your molecule has a higher symmetry. Symmetry factor of 1.0 is
      used for the rotational entropy correction.

Note: Rotational entropy computed according to Herzberg
Infrared and Raman Spectra, Chapter V,1, Van Nostrand Reinhold, 1945
Point Group:  C1, Symmetry Number:   1
Rotational constants in cm-1:     0.094901     0.015887     0.013643

Vibrational entropy computed according to the QRRHO of S. Grimme
Chem.Eur.J. 2012 18 9955 using a reference frequency of 100.0 cm-1

-------
ENTROPY
-------

The entropy contributions are T*S = T*(S(el)+S(vib)+S(rot)+S(trans))
     S(el)   - electronic entropy
     S(vib)  - vibrational entropy
     S(rot)  - rotational entropy
     S(trans)- translational entropy
The entropies will be listed as multiplied by the temperature to get
units of energy

Electronic entropy                ...      0.00065446 Eh      0.41 kcal/mol
Vibrational entropy               ...      0.01318196 Eh      8.27 kcal/mol
Rotational entropy                ...      0.01460547 Eh      9.17 kcal/mol
Translational entropy             ...      0.01958175 Eh     12.29 kcal/mol
-----------------------------------------------------------------------
Final entropy term                ...      0.04802364 Eh     30.14 kcal/mol

In case the symmetry of your molecule has not been determined correctly
or in case you have a reason to use a different symmetry number we print
out the resulting rotational entropy values for sn=1,12:

 non-linear molecules -----------------------------------
|  sn= 1 | S(rot)=       0.01460547 Eh      9.17 kcal/mol|
|  sn= 2 | S(rot)=       0.01395101 Eh      8.75 kcal/mol|
|  sn= 3 | S(rot)=       0.01356818 Eh      8.51 kcal/mol|
|  sn= 4 | S(rot)=       0.01329656 Eh      8.34 kcal/mol|
|  sn= 5 | S(rot)=       0.01308587 Eh      8.21 kcal/mol|
|  sn= 6 | S(rot)=       0.01291373 Eh      8.10 kcal/mol|
|  sn= 7 | S(rot)=       0.01276818 Eh      8.01 kcal/mol|
|  sn= 8 | S(rot)=       0.01264210 Eh      7.93 kcal/mol|

                             ****ORCA TERMINATED NORMALLY****
TOTAL RUN TIME: 0 days 0 hours 50 minutes 8 seconds 850 msec
