                         Program Version 6.0.0  -   RELEASE  -
|  1> !r2SCANh aug-cc-pVTZ d3 TightSCF SlowConv RIJCOSX defgrid2
|  2>
|  3> %pal
|  4> nprocs 4
|  5> end
|  6>
|  7> %scf
|  8> MaxIter 1500
|  9> end
| 10>
| 11> %maxcore 3000
| 12>
| 13> !CPCM
| 14> %cpcm smd true
| 15> SMDsolvent "MeCN"
| 16> surfacetype gepol_ses
| 17> rsolv 2.19
| 18> end
| 19>
| 20> * xyz 0 1
| 21> C           1.86847672101122     -0.00008236176043      0.00934069542278
| 22> C           1.16491620854655     -1.20399668013187      0.00231506739479
| 23> C          -0.22896335284967     -1.20071978485061     -0.00929652137640
| 24> C          -0.94900034920378      0.00006360460976     -0.01194017646160
| 25> C          -2.45182373447190      0.00004409306138      0.01139598288954
| 26> H          -2.86400768085413      0.89448921652384     -0.48498227844954
| 27> H          -2.86406757845967     -0.89139694424087     -0.49034168247459
| 28> H          -2.83153291351154     -0.00310912605040      1.05029467072035
| 29> C          -0.22885343288002      1.20074830825039     -0.00915605869330
| 30> C           1.16505216971292      1.20388451241840      0.00245858099490
| 31> H           1.70620101334868      2.15511788824393      0.00229991498037
| 32> H          -0.77200932779939      2.15177858845512     -0.01887855569817
| 33> H          -0.77221541101255     -2.15169724965365     -0.01913454693012
| 34> H           1.70598089527851     -2.15527912856971      0.00204061695885
| 35> H           2.96252007314476     -0.00014523630528      0.01580649072214
| 36> *
| 37>
| 38>                          ****END OF INPUT****

CARTESIAN COORDINATES (ANGSTROEM)
---------------------------------
  C      1.868477   -0.000082    0.009341
  C      1.164916   -1.203997    0.002315
  C     -0.228963   -1.200720   -0.009297
  C     -0.949000    0.000064   -0.011940
  C     -2.451824    0.000044    0.011396
  H     -2.864008    0.894489   -0.484982
  H     -2.864068   -0.891397   -0.490342
  H     -2.831533   -0.003109    1.050295
  C     -0.228853    1.200748   -0.009156
  C      1.165052    1.203885    0.002459
  H      1.706201    2.155118    0.002300
  H     -0.772009    2.151779   -0.018879
  H     -0.772215   -2.151697   -0.019135
  H      1.705981   -2.155279    0.002041
  H      2.962520   -0.000145    0.015806

 Total Charge           Charge          ....    0
 Multiplicity           Mult            ....    1
 Number of Electrons    NEL             ....   50
 Basis Dimension        Dim             ....  506

ORBITAL ENERGIES
----------------

  NO   OCC          E(Eh)            E(eV)
   0   2.0000     -10.169883      -276.7366
   1   2.0000     -10.159092      -276.4430
   2   2.0000     -10.159033      -276.4413
   3   2.0000     -10.156634      -276.3761
   4   2.0000     -10.155959      -276.3577
   5   2.0000     -10.155958      -276.3577
   6   2.0000     -10.146710      -276.1060
   7   2.0000      -0.857365       -23.3301
   8   2.0000      -0.768736       -20.9184
   9   2.0000      -0.741886       -20.1877
  10   2.0000      -0.676777       -18.4160
  11   2.0000      -0.596616       -16.2348
  12   2.0000      -0.574545       -15.6342
  13   2.0000      -0.497837       -13.5468
  14   2.0000      -0.447987       -12.1903
  15   2.0000      -0.438720       -11.9382
  16   2.0000      -0.406184       -11.0528
  17   2.0000      -0.403638       -10.9835
  18   2.0000      -0.393712       -10.7135
  19   2.0000      -0.365483        -9.9453
  20   2.0000      -0.350915        -9.5489
  21   2.0000      -0.326022        -8.8715
  22   2.0000      -0.320927        -8.7329
  23   2.0000      -0.251786        -6.8515
  24   2.0000      -0.240652        -6.5485
  25   0.0000      -0.024658        -0.6710
  26   0.0000      -0.021442        -0.5835
  27   0.0000       0.012138         0.3303
  28   0.0000       0.026107         0.7104
  29   0.0000       0.029255         0.7961

MULLIKEN ATOMIC CHARGES
-----------------------
   0 C :   -0.288368
   1 C :   -0.489260
   2 C :   -1.005592
   3 C :    1.520673
   4 C :   -0.688920
   5 H :    0.202260
   6 H :    0.202241
   7 H :    0.246246
   8 C :   -1.003456
   9 C :   -0.487788
  10 H :    0.497115
  11 H :    0.186139
  12 H :    0.188202
  13 H :    0.494136
  14 H :    0.426373
Sum of atomic charges:   -0.0000000

LOEWDIN ATOMIC CHARGES
----------------------
   0 C :    0.173145
   1 C :    0.177965
   2 C :    0.195934
   3 C :   -0.152660
   4 C :    0.571926
   5 H :   -0.165784
   6 H :   -0.165678
   7 H :   -0.151819
   8 C :    0.195951
   9 C :    0.177972
  10 H :   -0.173212
  11 H :   -0.167340
  12 H :   -0.167281
  13 H :   -0.173214
  14 H :   -0.175904

  Mayer bond orders larger than 0.100000
B(  0-C ,  1-C ) :   1.0511 B(  0-C ,  9-C ) :   1.0520 B(  0-C , 14-H ) :   0.7299
B(  1-C ,  2-C ) :   1.1531 B(  1-C ,  3-C ) :   0.1427 B(  1-C , 13-H ) :   0.5785
B(  2-C ,  3-C ) :   0.4549 B(  2-C ,  4-C ) :   0.1099 B(  2-C , 12-H ) :   1.0961
B(  3-C ,  4-C ) :   0.2938 B(  3-C ,  8-C ) :   0.4524 B(  3-C ,  9-C ) :   0.1435
B(  4-C ,  5-H ) :   0.9987 B(  4-C ,  6-H ) :   0.9988 B(  4-C ,  7-H ) :   0.9537
B(  4-C ,  8-C ) :   0.1079 B(  8-C ,  9-C ) :   1.1524 B(  8-C , 11-H ) :   1.1006
B(  9-C , 10-H ) :   0.5740

Dispersion correction           -0.004208249
FINAL SINGLE POINT ENERGY      -271.495564905639

DIPOLE MOMENT
-------------

Method             : SCF
Type of density    : Electron Density
Multiplicity       :   1
Irrep              :   0
Energy             :  -271.4913566567286693 Eh
Relativity type    :
Basis              : AO
                                X                 Y                 Z
Electronic contribution:      3.282002059      -0.000058322      -0.027620008
Nuclear contribution   :     -3.524846021      -0.000150115       0.053662303
                        -----------------------------------------
Total Dipole Moment    :     -0.242843963      -0.000208437       0.026042295
                        -----------------------------------------
Magnitude (a.u.)       :      0.244236432
Magnitude (Debye)      :      0.620799675

Rotational constants in cm-1:             0.184524             0.083891             0.058309
Rotational constants in MHz :          5531.875560          2514.985236          1748.069221

                             ****ORCA TERMINATED NORMALLY****
TOTAL RUN TIME: 0 days 0 hours 3 minutes 37 seconds 952 msec
