                         Program Version 6.0.0  -   RELEASE  -
|  1> !PBE0 aug-cc-pVTZ d3 TightSCF SlowConv RIJCOSX defgrid2
|  2>
|  3> %pal
|  4> nprocs 15
|  5> end
|  6>
|  7> %scf
|  8> MaxIter 1500
|  9> end
| 10>
| 11> %maxcore 3500
| 12>
| 13> !CPCM
| 14> %cpcm smd true
| 15> SMDsolvent "WATER"
| 16> surfacetype gepol_ses
| 17> rsolv 1.40
| 18> end
| 19>
| 20> * xyz 0 1
| 21> C          -0.04022979995253      0.10934243063256     -0.04781414840262
| 22> C          -1.20598933737927     -0.38579508968121      0.72535064655671
| 23> C           1.16762735129884      0.48320931067021      0.71660533841080
| 24> H          -2.08977721092752     -0.65804131143695      0.14047110955844
| 25> H           2.00933821779047      0.84338404791193      0.11644510533465
| 26> C          -1.15729609336593     -0.48547962221092      2.06219653568719
| 27> C           1.23994061348118      0.39162604465106      2.05974182181754
| 28> H          -1.99856910405152     -0.84630774685815      2.66159543961282
| 29> C           0.05550809013202     -0.10787998980524      2.82546584658989
| 30> O           0.08824138271929     -0.20066312730217      4.03611457894647
| 31> O          -0.08237810438593      0.20201294968745     -1.25889477385297
| 32> C           2.43938990003151      0.75910371183851      2.86443148480113
| 33> H           2.18564348705276      1.54409943819251      3.59804132816950
| 34> H           2.78911766568061     -0.10695868663051      3.45298570242047
| 35> H           3.25938092587604      1.11528426934092      2.22204567334997
| 36> *
| 37>
| 38>                          ****END OF INPUT****

CARTESIAN COORDINATES (ANGSTROEM)
---------------------------------
  C     -0.040230    0.109342   -0.047814
  C     -1.205989   -0.385795    0.725351
  C      1.167627    0.483209    0.716605
  H     -2.089777   -0.658041    0.140471
  H      2.009338    0.843384    0.116445
  C     -1.157296   -0.485480    2.062197
  C      1.239941    0.391626    2.059742
  H     -1.998569   -0.846308    2.661595
  C      0.055508   -0.107880    2.825466
  O      0.088241   -0.200663    4.036115
  O     -0.082378    0.202013   -1.258895
  C      2.439390    0.759104    2.864431
  H      2.185643    1.544099    3.598041
  H      2.789118   -0.106959    3.452986
  H      3.259381    1.115284    2.222046

 Total Charge           Charge          ....    0
 Multiplicity           Mult            ....    1
 Number of Electrons    NEL             ....   64
 Basis Dimension        Dim             ....  552

ORBITAL ENERGIES
----------------

  NO   OCC          E(Eh)            E(eV)
   0   2.0000     -19.228775      -523.2416
   1   2.0000     -19.225966      -523.1651
   2   2.0000     -10.337682      -281.3026
   3   2.0000     -10.336127      -281.2603
   4   2.0000     -10.271451      -279.5004
   5   2.0000     -10.260961      -279.2149
   6   2.0000     -10.260021      -279.1894
   7   2.0000     -10.252138      -278.9749
   8   2.0000     -10.225172      -278.2411
   9   2.0000      -1.103016       -30.0146
  10   2.0000      -1.099643       -29.9228
  11   2.0000      -0.883296       -24.0357
  12   2.0000      -0.822327       -22.3767
  13   2.0000      -0.744301       -20.2534
  14   2.0000      -0.707181       -19.2434
  15   2.0000      -0.639969       -17.4144
  16   2.0000      -0.604194       -16.4409
  17   2.0000      -0.537608       -14.6291
  18   2.0000      -0.521631       -14.1943
  19   2.0000      -0.497541       -13.5388
  20   2.0000      -0.470079       -12.7915
  21   2.0000      -0.458208       -12.4685
  22   2.0000      -0.449205       -12.2235
  23   2.0000      -0.438752       -11.9390
  24   2.0000      -0.434781       -11.8310
  25   2.0000      -0.414295       -11.2735
  26   2.0000      -0.410328       -11.1656
  27   2.0000      -0.392766       -10.6877
  28   2.0000      -0.319666        -8.6985
  29   2.0000      -0.304212        -8.2780
  30   2.0000      -0.294228        -8.0063
  31   2.0000      -0.288580        -7.8527
  32   0.0000      -0.126831        -3.4513
  33   0.0000      -0.016559        -0.4506
  34   0.0000       0.004651         0.1266
  35   0.0000       0.008907         0.2424
  36   0.0000       0.016297         0.4435

MULLIKEN ATOMIC CHARGES
-----------------------
   0 C :    0.993735
   1 C :   -0.567386
   2 C :   -0.763882
   3 H :    0.547444
   4 H :    0.415579
   5 C :   -0.597605
   6 C :    0.595467
   7 H :    0.583465
   8 C :    0.679817
   9 O :   -0.972435
  10 O :   -0.944785
  11 C :   -0.728649
  12 H :    0.256703
  13 H :    0.256463
  14 H :    0.246069
Sum of atomic charges:    0.0000000

LOEWDIN ATOMIC CHARGES
----------------------
   0 C :   -0.584884
   1 C :    0.224457
   2 C :    0.235420
   3 H :   -0.162147
   4 H :   -0.161268
   5 C :    0.228261
   6 C :   -0.116543
   7 H :   -0.162608
   8 C :   -0.552865
   9 O :    0.489663
  10 O :    0.456817
  11 C :    0.565713
  12 H :   -0.152066
  13 H :   -0.152011
  14 H :   -0.155940

  Mayer bond orders larger than 0.100000
B(  0-C ,  1-C ) :   0.9278 B(  0-C ,  2-C ) :   0.9148 B(  0-C , 10-O ) :   0.7184
B(  1-C ,  2-C ) :   0.2514 B(  1-C ,  3-H ) :   0.3995 B(  1-C ,  5-C ) :   1.8130
B(  1-C , 10-O ) :   0.1361 B(  2-C ,  4-H ) :   0.5544 B(  2-C ,  5-C ) :  -0.1519
B(  2-C ,  6-C ) :   1.3774 B(  2-C , 10-O ) :   0.1050 B(  4-H ,  6-C ) :   0.1004
B(  5-C ,  6-C ) :   0.2128 B(  5-C ,  7-H ) :   0.3227 B(  5-C ,  8-C ) :   0.9910
B(  5-C ,  9-O ) :   0.1543 B(  6-C ,  8-C ) :   0.9640 B(  6-C , 10-O ) :   0.1217
B(  6-C , 11-C ) :   0.6573 B(  8-C ,  9-O ) :   0.7460 B(  8-C , 11-C ) :   0.1622
B( 11-C , 12-H ) :   0.9213 B( 11-C , 13-H ) :   0.9216 B( 11-C , 14-H ) :   0.9491

Dispersion correction           -0.013336123
FINAL SINGLE POINT ENERGY      -420.464389059763

DIPOLE MOMENT
-------------

Method             : SCF
Type of density    : Electron Density
Multiplicity       :   1
Irrep              :   0
Energy             :  -420.4510529368934044 Eh
Relativity type    :
Basis              : AO
                                X                 Y                 Z
Electronic contribution:     -3.858266635      -1.209722081      -2.256854021
Nuclear contribution   :      4.092101562       1.259935150       2.614157328
                        -----------------------------------------
Total Dipole Moment    :      0.233834927       0.050213069       0.357303306
                        -----------------------------------------
Magnitude (a.u.)       :      0.429960205
Magnitude (Debye)      :      1.092871990

Rotational constants in cm-1:             0.099449             0.047883             0.032517
Rotational constants in MHz :          2981.414348          1435.498503           974.822832

                             ****ORCA TERMINATED NORMALLY****
TOTAL RUN TIME: 0 days 0 hours 2 minutes 44 seconds 985 msec
