                         Program Version 6.0.0  -   RELEASE  -
|  1> !PBE0 aug-cc-pVTZ d3 TightSCF SlowConv RIJCOSX defgrid2
|  2>
|  3> %pal
|  4> nprocs 4
|  5> end
|  6>
|  7> %scf
|  8> MaxIter 1500
|  9> end
| 10>
| 11> %maxcore 3000
| 12>
| 13> !CPCM
| 14> %cpcm smd true
| 15> SMDsolvent "MeCN"
| 16> surfacetype gepol_ses
| 17> rsolv 2.19
| 18> end
| 19>
| 20> * xyz 0 1
| 21> C          -0.49592270970750      1.20689036506876     -0.03130110264914
| 22> C          -1.88685532532519      1.19699753212455     -0.02314506175738
| 23> C          -2.60125975900159      0.00006218322477     -0.01917601586061
| 24> C          -1.88691051129410     -1.19690511286666     -0.02342725949643
| 25> C          -0.49597917173478     -1.20686134487156     -0.03159202517744
| 26> C           0.23868603456831     -0.00000172653772     -0.03609509009819
| 27> N           1.61626182022358     -0.00003106078646     -0.04469127469160
| 28> C           2.33183955992311      1.24597481666428     -0.04486665705751
| 29> H           3.41338665254704      1.04576364513015     -0.05323272367948
| 30> H           2.09753310431419      1.86285731996164     -0.93541110907656
| 31> H           2.10988003494310      1.85696995864317      0.85303702382408
| 32> C           2.33179343347907     -1.24606302804888     -0.04453387362300
| 33> H           3.41335300622739     -1.04589190456372     -0.05217912937846
| 34> H           2.10924230348017     -1.85707031820411      0.85320726726296
| 35> H           2.09802467704190     -1.86292175713273     -0.93524555395099
| 36> H           0.02088202703341     -2.16757371924062     -0.03449261449586
| 37> H          -2.42069136544180     -2.15271053199358     -0.02020648268014
| 38> H          -3.69441433931262      0.00008648240457     -0.01268972961591
| 39> H          -2.42058983097200      2.15282777025830     -0.01968144249458
| 40> H           0.02098115900830      2.16758023076587     -0.03391284530377
| 41> *
| 42>
| 43>                          ****END OF INPUT****

CARTESIAN COORDINATES (ANGSTROEM)
---------------------------------
  C     -0.495923    1.206890   -0.031301
  C     -1.886855    1.196998   -0.023145
  C     -2.601260    0.000062   -0.019176
  C     -1.886911   -1.196905   -0.023427
  C     -0.495979   -1.206861   -0.031592
  C      0.238686   -0.000002   -0.036095
  N      1.616262   -0.000031   -0.044691
  C      2.331840    1.245975   -0.044867
  H      3.413387    1.045764   -0.053233
  H      2.097533    1.862857   -0.935411
  H      2.109880    1.856970    0.853037
  C      2.331793   -1.246063   -0.044534
  H      3.413353   -1.045892   -0.052179
  H      2.109242   -1.857070    0.853207
  H      2.098025   -1.862922   -0.935246
  H      0.020882   -2.167574   -0.034493
  H     -2.420691   -2.152711   -0.020206
  H     -3.694414    0.000086   -0.012690
  H     -2.420590    2.152828   -0.019681
  H      0.020981    2.167580   -0.033913

 Total Charge           Charge          ....    0
 Multiplicity           Mult            ....    1
 Number of Electrons    NEL             ....   66
 Basis Dimension        Dim             ....  667

ORBITAL ENERGIES
----------------

  NO   OCC          E(Eh)            E(eV)
   0   2.0000     -14.404090      -391.9552
   1   2.0000     -10.267646      -279.3968
   2   2.0000     -10.243401      -278.7371
   3   2.0000     -10.243383      -278.7366
   4   2.0000     -10.226244      -278.2702
   5   2.0000     -10.226221      -278.2696
   6   2.0000     -10.219588      -278.0891
   7   2.0000     -10.219577      -278.0888
   8   2.0000     -10.214929      -277.9624
   9   2.0000      -0.977684       -26.6041
  10   2.0000      -0.867847       -23.6153
  11   2.0000      -0.768421       -20.9098
  12   2.0000      -0.765620       -20.8336
  13   2.0000      -0.734252       -19.9800
  14   2.0000      -0.672647       -18.3037
  15   2.0000      -0.614140       -16.7116
  16   2.0000      -0.587282       -15.9808
  17   2.0000      -0.540823       -14.7166
  18   2.0000      -0.491172       -13.3655
  19   2.0000      -0.483820       -13.1654
  20   2.0000      -0.473594       -12.8872
  21   2.0000      -0.452881       -12.3235
  22   2.0000      -0.429967       -11.7000
  23   2.0000      -0.426480       -11.6051
  24   2.0000      -0.405595       -11.0368
  25   2.0000      -0.396825       -10.7982
  26   2.0000      -0.382480       -10.4078
  27   2.0000      -0.377926       -10.2839
  28   2.0000      -0.363040        -9.8788
  29   2.0000      -0.339535        -9.2392
  30   2.0000      -0.298426        -8.1206
  31   2.0000      -0.265291        -7.2189
  32   2.0000      -0.202039        -5.4978
  33   0.0000      -0.006696        -0.1822
  34   0.0000       0.000089         0.0024
  35   0.0000       0.010490         0.2855
  36   0.0000       0.014019         0.3815
  37   0.0000       0.016770         0.4563

MULLIKEN ATOMIC CHARGES
-----------------------
   0 C :   -0.699569
   1 C :   -0.695811
   2 C :   -0.668893
   3 C :   -0.694802
   4 C :   -0.700262
   5 C :    1.221435
   6 N :   -0.163278
   7 C :   -0.923423
   8 H :    0.277426
   9 H :    0.290218
  10 H :    0.291097
  11 C :   -0.923800
  12 H :    0.278564
  13 H :    0.290923
  14 H :    0.290390
  15 H :    0.435819
  16 H :    0.546207
  17 H :    0.564952
  18 H :    0.544399
  19 H :    0.438408
Sum of atomic charges:   -0.0000000

LOEWDIN ATOMIC CHARGES
----------------------
   0 C :    0.200552
   1 C :    0.161964
   2 C :    0.157038
   3 C :    0.161964
   4 C :    0.200550
   5 C :   -0.235115
   6 N :    0.229860
   7 C :    0.463248
   8 H :   -0.160366
   9 H :   -0.141803
  10 H :   -0.141299
  11 C :    0.463256
  12 H :   -0.160346
  13 H :   -0.141332
  14 H :   -0.141782
  15 H :   -0.196155
  16 H :   -0.170588
  17 H :   -0.182901
  18 H :   -0.170590
  19 H :   -0.196154

  Mayer bond orders larger than 0.100000
B(  0-C ,  1-C ) :   1.2354 B(  0-C ,  2-C ) :   0.2587 B(  0-C ,  4-C ) :   0.1771
B(  0-C ,  5-C ) :   0.6437 B(  0-C ,  6-N ) :  -0.2855 B(  0-C ,  7-C ) :  -0.1107
B(  0-C , 19-H ) :   0.5491 B(  1-C ,  2-C ) :   1.2453 B(  1-C ,  5-C ) :  -0.2869
B(  1-C , 18-H ) :   0.5319 B(  2-C ,  3-C ) :   1.2431 B(  2-C ,  4-C ) :   0.2585
B(  2-C ,  5-C ) :  -0.1449 B(  2-C , 17-H ) :   0.4127 B(  3-C ,  4-C ) :   1.2382
B(  3-C ,  5-C ) :  -0.2902 B(  3-C , 16-H ) :   0.5299 B(  4-C ,  5-C ) :   0.6425
B(  4-C ,  6-N ) :  -0.2873 B(  4-C , 11-C ) :  -0.1145 B(  4-C , 15-H ) :   0.5490
B(  5-C ,  6-N ) :   0.5868 B(  5-C ,  7-C ) :  -0.1230 B(  5-C , 11-C ) :  -0.1222
B(  6-N ,  7-C ) :   1.1704 B(  6-N , 11-C ) :   1.1700 B(  7-C ,  8-H ) :   0.9235
B(  7-C ,  9-H ) :   0.9147 B(  7-C , 10-H ) :   0.9138 B( 11-C , 12-H ) :   0.9228
B( 11-C , 13-H ) :   0.9137 B( 11-C , 14-H ) :   0.9144

Dispersion correction           -0.017608617
FINAL SINGLE POINT ENERGY      -365.927452431204

DIPOLE MOMENT
-------------

Method             : SCF
Type of density    : Electron Density
Multiplicity       :   1
Irrep              :   0
Energy             :  -365.9098438142083296 Eh
Relativity type    :
Basis              : AO
                                X                 Y                 Z
Electronic contribution:     -5.126948036       0.000174696       0.015606854
Nuclear contribution   :      6.353119330      -0.000129568      -0.019904796
                        -----------------------------------------
Total Dipole Moment    :      1.226171293       0.000045128      -0.004297942
                        -----------------------------------------
Magnitude (a.u.)       :      1.226178826
Magnitude (Debye)      :      3.116698889

Rotational constants in cm-1:             0.116345             0.041042             0.030696
Rotational constants in MHz :          3487.926774          1230.417082           920.238252

                             ****ORCA TERMINATED NORMALLY****
TOTAL RUN TIME: 0 days 0 hours 5 minutes 57 seconds 230 msec
