                         Program Version 6.0.0  -   RELEASE  -
|  1> !r2SCANh aug-cc-pVTZ d3 TightSCF SlowConv RIJCOSX defgrid2
|  2>
|  3> %pal
|  4> nprocs 15
|  5> end
|  6>
|  7> %scf
|  8> MaxIter 1500
|  9> end
| 10>
| 11> %maxcore 3500
| 12>
| 13> !CPCM
| 14> %cpcm smd true
| 15> SMDsolvent "WATER"
| 16> surfacetype gepol_ses
| 17> rsolv 1.40
| 18> end
| 19>
| 20> * xyz -1 2
| 21> C          -0.03973046046840      0.10892812040704     -0.07338476870276
| 22> C          -1.16098921528207     -0.36942550235928      0.71209175660899
| 23> C           1.12950619870235      0.46906063473388      0.70766297682295
| 24> H          -2.06041411321376     -0.64988443685068      0.14997121109878
| 25> H           1.99092702988929      0.83408061571124      0.13293381113983
| 26> C          -1.11212024378879     -0.46999723963456      2.07962395432224
| 27> C           1.19382481607047      0.37407440355199      2.07622299159295
| 28> H          -1.97201412595405     -0.83453656930806      2.65522434724164
| 29> C           0.05609683638602     -0.10970890072807      2.85428687501407
| 30> O           0.10372480477544     -0.20102139334893      4.10562446305031
| 31> O          -0.07494807117445      0.20434515385365     -1.32351109494325
| 32> C           2.41507813745815      0.75326139926788      2.85674776584986
| 33> H           2.18096706491750      1.54375255830692      3.59412318045315
| 34> H           2.78389777303057     -0.10350094502541      3.45115835416892
| 35> H           3.22614155265174      1.10750873042238      2.19600586528230
| 36> *
| 37>
| 38>                          ****END OF INPUT****

CARTESIAN COORDINATES (ANGSTROEM)
---------------------------------
  C     -0.039730    0.108928   -0.073385
  C     -1.160989   -0.369426    0.712092
  C      1.129506    0.469061    0.707663
  H     -2.060414   -0.649884    0.149971
  H      1.990927    0.834081    0.132934
  C     -1.112120   -0.469997    2.079624
  C      1.193825    0.374074    2.076223
  H     -1.972014   -0.834537    2.655224
  C      0.056097   -0.109709    2.854287
  O      0.103725   -0.201021    4.105624
  O     -0.074948    0.204345   -1.323511
  C      2.415078    0.753261    2.856748
  H      2.180967    1.543753    3.594123
  H      2.783898   -0.103501    3.451158
  H      3.226142    1.107509    2.196006

 Total Charge           Charge          ....   -1
 Multiplicity           Mult            ....    2
 Number of Electrons    NEL             ....   65
 Basis Dimension        Dim             ....  552

ORBITAL ENERGIES
----------------
                 SPIN UP ORBITALS
  NO   OCC          E(Eh)            E(eV)
   0   1.0000     -19.081293      -519.2284
   1   1.0000     -19.081270      -519.2278
   2   1.0000     -10.209840      -277.8239
   3   1.0000     -10.207887      -277.7707
   4   1.0000     -10.162506      -276.5358
   5   1.0000     -10.151514      -276.2368
   6   1.0000     -10.150805      -276.2174
   7   1.0000     -10.146078      -276.0888
   8   1.0000     -10.142614      -275.9946
   9   1.0000      -1.014473       -27.6052
  10   1.0000      -1.012372       -27.5480
  11   1.0000      -0.825611       -22.4660
  12   1.0000      -0.761865       -20.7314
  13   1.0000      -0.695926       -18.9371
  14   1.0000      -0.661528       -18.0011
  15   1.0000      -0.584418       -15.9028
  16   1.0000      -0.548063       -14.9135
  17   1.0000      -0.469354       -12.7718
  18   1.0000      -0.462506       -12.5854
  19   1.0000      -0.434321       -11.8185
  20   1.0000      -0.420524       -11.4431
  21   1.0000      -0.399062       -10.8590
  22   1.0000      -0.392132       -10.6705
  23   1.0000      -0.386798       -10.5253
  24   1.0000      -0.376754       -10.2520
  25   1.0000      -0.367380        -9.9969
  26   1.0000      -0.353826        -9.6281
  27   1.0000      -0.339536        -9.2392
  28   1.0000      -0.281267        -7.6537
  29   1.0000      -0.247265        -6.7284
  30   1.0000      -0.241645        -6.5755
  31   1.0000      -0.232224        -6.3191
  32   1.0000      -0.164061        -4.4643
  33   0.0000      -0.020129        -0.5477
  34   0.0000       0.012399         0.3374
  35   0.0000       0.012941         0.3522
  36   0.0000       0.025526         0.6946
  37   0.0000       0.027799         0.7564

                 SPIN DOWN ORBITALS
  NO   OCC          E(Eh)            E(eV)
   0   1.0000     -19.073494      -519.0162
   1   1.0000     -19.073342      -519.0120
   2   1.0000     -10.207877      -277.7705
   3   1.0000     -10.205683      -277.7108
   4   1.0000     -10.161061      -276.4965
   5   1.0000     -10.150209      -276.2012
   6   1.0000     -10.149218      -276.1743
   7   1.0000     -10.145368      -276.0695
   8   1.0000     -10.142724      -275.9976
   9   1.0000      -1.002099       -27.2685
  10   1.0000      -0.999765       -27.2050
  11   1.0000      -0.818592       -22.2750
  12   1.0000      -0.758342       -20.6355
  13   1.0000      -0.689312       -18.7571
  14   1.0000      -0.652778       -17.7630
  15   1.0000      -0.579638       -15.7727
  16   1.0000      -0.542790       -14.7701
  17   1.0000      -0.467726       -12.7275
  18   1.0000      -0.458431       -12.4746
  19   1.0000      -0.429194       -11.6789
  20   1.0000      -0.406167       -11.0524
  21   1.0000      -0.395569       -10.7640
  22   1.0000      -0.389780       -10.6064
  23   1.0000      -0.375116       -10.2074
  24   1.0000      -0.367454        -9.9989
  25   1.0000      -0.351550        -9.5662
  26   1.0000      -0.342567        -9.3217
  27   1.0000      -0.337515        -9.1842
  28   1.0000      -0.251567        -6.8455
  29   1.0000      -0.237252        -6.4560
  30   1.0000      -0.235422        -6.4062
  31   1.0000      -0.226315        -6.1583
  32   0.0000      -0.104917        -2.8549
  33   0.0000      -0.001938        -0.0527
  34   0.0000       0.013404         0.3647
  35   0.0000       0.026123         0.7108
  36   0.0000       0.028273         0.7694

MULLIKEN ATOMIC CHARGES AND SPIN POPULATIONS
--------------------------------------------
   0 C :    1.090487    0.109114
   1 C :   -0.601257    0.104384
   2 C :   -0.908004    0.055975
   3 H :    0.431014   -0.003924
   4 H :    0.171059   -0.001518
   5 C :   -0.671711    0.054248
   6 C :    1.076824    0.084738
   7 H :    0.463246    0.001008
   8 C :    0.544430    0.122721
   9 O :   -1.176948    0.250537
  10 O :   -1.177008    0.239528
  11 C :   -0.815678   -0.029755
  12 H :    0.200612    0.007137
  13 H :    0.201012    0.007105
  14 H :    0.171921   -0.001297
Sum of atomic charges         :   -1.0000000

LOEWDIN ATOMIC CHARGES AND SPIN POPULATIONS
-------------------------------------------
   0 C :   -0.702417    0.121375
   1 C :    0.142223    0.084861
   2 C :    0.167001    0.057287
   3 H :   -0.195884    0.009708
   4 H :   -0.190947    0.004228
   5 C :    0.147126    0.077815
   6 C :   -0.178568    0.073088
   7 H :   -0.195121    0.007001
   8 C :   -0.669460    0.130488
   9 O :    0.340552    0.214359
  10 O :    0.304699    0.207182
  11 C :    0.534607    0.008288
  12 H :   -0.167044    0.002347
  13 H :   -0.167066    0.002350
  14 H :   -0.169699   -0.000376

  Mayer bond orders larger than 0.100000
B(  0-C ,  1-C ) :   0.9321 B(  0-C ,  2-C ) :   0.8978 B(  0-C ,  5-C ) :  -0.1534
B(  0-C , 10-O ) :   0.4215 B(  1-C ,  2-C ) :   0.3661 B(  1-C ,  3-H ) :   0.5011
B(  1-C ,  5-C ) :   1.3908 B(  1-C ,  6-C ) :  -0.1280 B(  1-C ,  8-C ) :  -0.1104
B(  1-C , 10-O ) :   0.1597 B(  2-C ,  4-H ) :   0.8667 B(  2-C ,  5-C ) :  -0.1965
B(  2-C ,  6-C ) :   0.8838 B(  5-C ,  6-C ) :   0.2708 B(  5-C ,  7-H ) :   0.4345
B(  5-C ,  8-C ) :   1.1722 B(  5-C ,  9-O ) :   0.1548 B(  6-C ,  8-C ) :   1.0018
B(  6-C , 10-O ) :   0.1003 B(  6-C , 11-C ) :   0.2998 B(  8-C ,  9-O ) :   0.5038
B(  8-C , 11-C ) :   0.2408 B( 11-C , 12-H ) :   0.9805 B( 11-C , 13-H ) :   0.9802
B( 11-C , 14-H ) :   1.0336

Dispersion correction           -0.004663220
FINAL SINGLE POINT ENERGY      -420.845504077235

DIPOLE MOMENT
-------------

Method             : SCF
Type of density    : Electron Density
Multiplicity       :   2
Irrep              :   0
Energy             :  -420.8408408569320613 Eh
Relativity type    :
Basis              : AO
                                X                 Y                 Z
Electronic contribution:     -3.349279254      -1.051304982      -2.004038067
Nuclear contribution   :      4.080055806       1.268229623       2.595706688
                        -----------------------------------------
Total Dipole Moment    :      0.730776552       0.216924641       0.591668621
                        -----------------------------------------
Magnitude (a.u.)       :      0.964967578
Magnitude (Debye)      :      2.452752660

Rotational constants in cm-1:             0.102982             0.046318             0.032139
Rotational constants in MHz :          3087.332210          1388.578907           963.495969

                             ****ORCA TERMINATED NORMALLY****
TOTAL RUN TIME: 0 days 0 hours 3 minutes 45 seconds 322 msec
