                         Program Version 6.0.0  -   RELEASE  -
|  1> !TPSSh aug-cc-pVTZ d3 TightSCF SlowConv RIJCOSX defgrid2
|  2>
|  3> %pal
|  4> nprocs 4
|  5> end
|  6>
|  7> %scf
|  8> MaxIter 1500
|  9> end
| 10>
| 11> %maxcore 3000
| 12>
| 13> !CPCM
| 14> %cpcm smd true
| 15> SMDsolvent "MeCN"
| 16> surfacetype gepol_ses
| 17> rsolv 2.19
| 18> end
| 19>
| 20> * xyz 1 2
| 21> C           0.87744843065952     -1.21883020305656     -0.00000377931808
| 22> C           1.23614385256415      0.16954678831828     -0.00005753568123
| 23> C           0.19424149048169      1.13860709962105     -0.00010423188513
| 24> C          -1.13871229830849      0.78765011017298     -0.00010761886515
| 25> C          -1.47639805753200     -0.61212175919558     -0.00004559988331
| 26> C          -0.44313247207265     -1.58385318757954     -0.00000224391858
| 27> H          -0.71685810144297     -2.64212602539406      0.00003056402544
| 28> C          -2.89571606376255     -1.03893857261662      0.00008867922043
| 29> H          -3.00213765434000     -2.13324643661373     -0.00058232712929
| 30> H          -3.42610981706820     -0.62983884560970     -0.88112182092760
| 31> H          -3.42539618531857     -0.63109402296886      0.88234176195400
| 32> C          -2.21290888782919      1.82515453001126     -0.00014347524999
| 33> H          -2.86411247883622      1.72648441322314      0.88680265880356
| 34> H          -2.86402349010390      1.72654581117049     -0.88716064088710
| 35> H          -1.78890328618740      2.84026297434392     -0.00008728403417
| 36> H           0.46977060139751      2.19725330423840     -0.00014030748002
| 37> C           2.58814654556121      0.62001515372005     -0.00006319236512
| 38> C           3.70337676945614     -0.17841322402212     -0.00002927580579
| 39> H           3.65253331490638     -1.27227115038024      0.00001025225905
| 40> H           4.70281234102144      0.26973736826902     -0.00003315173613
| 41> H           2.73668489690756      1.70605493317894     -0.00009332036310
| 42> H           1.65048734984656     -1.99000785883051      0.00003538926729
| 43> *
| 44>
| 45>                          ****END OF INPUT****

CARTESIAN COORDINATES (ANGSTROEM)
---------------------------------
  C      0.877448   -1.218830   -0.000004
  C      1.236144    0.169547   -0.000058
  C      0.194241    1.138607   -0.000104
  C     -1.138712    0.787650   -0.000108
  C     -1.476398   -0.612122   -0.000046
  C     -0.443132   -1.583853   -0.000002
  H     -0.716858   -2.642126    0.000031
  C     -2.895716   -1.038939    0.000089
  H     -3.002138   -2.133246   -0.000582
  H     -3.426110   -0.629839   -0.881122
  H     -3.425396   -0.631094    0.882342
  C     -2.212909    1.825155   -0.000143
  H     -2.864112    1.726484    0.886803
  H     -2.864023    1.726546   -0.887161
  H     -1.788903    2.840263   -0.000087
  H      0.469771    2.197253   -0.000140
  C      2.588147    0.620015   -0.000063
  C      3.703377   -0.178413   -0.000029
  H      3.652533   -1.272271    0.000010
  H      4.702812    0.269737   -0.000033
  H      2.736685    1.706055   -0.000093
  H      1.650487   -1.990008    0.000035

 Total Charge           Charge          ....    1
 Multiplicity           Mult            ....    2
 Number of Electrons    NEL             ....   71
 Basis Dimension        Dim             ....  736

ORBITAL ENERGIES
----------------
                 SPIN UP ORBITALS
  NO   OCC          E(Eh)            E(eV)
   0   1.0000     -10.185862      -277.1714
   1   1.0000     -10.182344      -277.0757
   2   1.0000     -10.172872      -276.8179
   3   1.0000     -10.167087      -276.6605
   4   1.0000     -10.163553      -276.5643
   5   1.0000     -10.162283      -276.5298
   6   1.0000     -10.151587      -276.2387
   7   1.0000     -10.148191      -276.1463
   8   1.0000     -10.127573      -275.5853
   9   1.0000     -10.122285      -275.4414
  10   1.0000      -0.885289       -24.0899
  11   1.0000      -0.826361       -22.4864
  12   1.0000      -0.780841       -21.2478
  13   1.0000      -0.766271       -20.8513
  14   1.0000      -0.708809       -19.2877
  15   1.0000      -0.679180       -18.4814
  16   1.0000      -0.622812       -16.9476
  17   1.0000      -0.610417       -16.6103
  18   1.0000      -0.557221       -15.1628
  19   1.0000      -0.513574       -13.9751
  20   1.0000      -0.495776       -13.4907
  21   1.0000      -0.464983       -12.6528
  22   1.0000      -0.442308       -12.0358
  23   1.0000      -0.441522       -12.0144
  24   1.0000      -0.429150       -11.6778
  25   1.0000      -0.422072       -11.4851
  26   1.0000      -0.396634       -10.7930
  27   1.0000      -0.389606       -10.6017
  28   1.0000      -0.389158       -10.5895
  29   1.0000      -0.384997       -10.4763
  30   1.0000      -0.374869       -10.2007
  31   1.0000      -0.352707        -9.5976
  32   1.0000      -0.343629        -9.3506
  33   1.0000      -0.324885        -8.8406
  34   1.0000      -0.275688        -7.5019
  35   1.0000      -0.258562        -7.0358
  36   0.0000      -0.107529        -2.9260
  37   0.0000      -0.050639        -1.3780
  38   0.0000      -0.011808        -0.3213
  39   0.0000      -0.007170        -0.1951
  40   0.0000       0.002168         0.0590

                 SPIN DOWN ORBITALS
  NO   OCC          E(Eh)            E(eV)
   0   1.0000     -10.181106      -277.0420
   1   1.0000     -10.179078      -276.9868
   2   1.0000     -10.167959      -276.6842
   3   1.0000     -10.165996      -276.6308
   4   1.0000     -10.163113      -276.5524
   5   1.0000     -10.160332      -276.4767
   6   1.0000     -10.151571      -276.2383
   7   1.0000     -10.148910      -276.1659
   8   1.0000     -10.127749      -275.5901
   9   1.0000     -10.122308      -275.4420
  10   1.0000      -0.879304       -23.9271
  11   1.0000      -0.818971       -22.2853
  12   1.0000      -0.779522       -21.2119
  13   1.0000      -0.757121       -20.6023
  14   1.0000      -0.705028       -19.1848
  15   1.0000      -0.674341       -18.3498
  16   1.0000      -0.618333       -16.8257
  17   1.0000      -0.606979       -16.5167
  18   1.0000      -0.553191       -15.0531
  19   1.0000      -0.511704       -13.9242
  20   1.0000      -0.493453       -13.4275
  21   1.0000      -0.462226       -12.5778
  22   1.0000      -0.439093       -11.9483
  23   1.0000      -0.432712       -11.7747
  24   1.0000      -0.426969       -11.6184
  25   1.0000      -0.421239       -11.4625
  26   1.0000      -0.392594       -10.6830
  27   1.0000      -0.387246       -10.5375
  28   1.0000      -0.384653       -10.4669
  29   1.0000      -0.375035       -10.2052
  30   1.0000      -0.373509       -10.1637
  31   1.0000      -0.351884        -9.5753
  32   1.0000      -0.341902        -9.3036
  33   1.0000      -0.302904        -8.2424
  34   1.0000      -0.270684        -7.3657
  35   0.0000      -0.202440        -5.5087
  36   0.0000      -0.079403        -2.1607
  37   0.0000      -0.041950        -1.1415
  38   0.0000      -0.006454        -0.1756
  39   0.0000       0.003517         0.0957

MULLIKEN ATOMIC CHARGES AND SPIN POPULATIONS
--------------------------------------------
   0 C :   -0.120786    0.099064
   1 C :    1.478208    0.220008
   2 C :   -0.587071    0.003923
   3 C :    0.207424    0.012098
   4 C :    0.447005    0.363881
   5 C :   -0.807134   -0.085889
   6 H :    0.111605    0.001236
   7 C :   -0.205125   -0.043155
   8 H :   -0.088110   -0.006496
   9 H :    0.173739    0.026317
  10 H :    0.174812    0.026358
  11 C :   -0.200228   -0.008077
  12 H :    0.167125    0.004076
  13 H :    0.167159    0.004075
  14 H :   -0.086239   -0.000511
  15 H :   -0.254671    0.008120
  16 C :    0.203310   -0.005446
  17 C :   -0.554840    0.393924
  18 H :    0.305040    0.006903
  19 H :    0.054271   -0.020770
  20 H :    0.162653    0.006386
  21 H :    0.251854   -0.006026
Sum of atomic charges         :    1.0000000

LOEWDIN ATOMIC CHARGES AND SPIN POPULATIONS
-------------------------------------------
   0 C :    0.278059    0.084311
   1 C :   -0.078955    0.121822
   2 C :    0.280949    0.035944
   3 C :   -0.049358    0.056328
   4 C :   -0.032966    0.156609
   5 C :    0.285378    0.041364
   6 H :   -0.146338   -0.002756
   7 C :    0.617908    0.050161
   8 H :   -0.148613    0.001279
   9 H :   -0.134243    0.012501
  10 H :   -0.134144    0.012523
  11 C :    0.602611    0.006134
  12 H :   -0.142954    0.001999
  13 H :   -0.142958    0.001999
  14 H :   -0.153256    0.000008
  15 H :   -0.144652    0.001164
  16 C :    0.255597    0.083877
  17 C :    0.644487    0.229375
  18 H :   -0.180483    0.044515
  19 H :   -0.162477    0.049380
  20 H :   -0.155484    0.000027
  21 H :   -0.158109    0.011437

  Mayer bond orders larger than 0.100000
B(  0-C ,  1-C ) :   0.6002 B(  0-C ,  2-C ) :  -0.5725 B(  0-C ,  3-C ) :  -0.1414
B(  0-C ,  5-C ) :   1.2760 B(  0-C , 16-C ) :   0.1594 B(  0-C , 21-H ) :   1.0369
B(  1-C ,  3-C ) :   0.2215 B(  1-C ,  4-C ) :  -0.3996 B(  1-C ,  7-C ) :   0.1090
B(  1-C , 15-H ) :  -0.2215 B(  1-C , 16-C ) :   0.4944 B(  1-C , 17-C ) :  -0.2106
B(  1-C , 20-H ) :   0.1625 B(  1-C , 21-H ) :   0.1924 B(  2-C ,  3-C ) :   1.0036
B(  2-C ,  4-C ) :  -0.1148 B(  2-C ,  5-C ) :   0.1466 B(  2-C , 11-C ) :  -0.2743
B(  2-C , 15-H ) :   1.8167 B(  2-C , 20-H ) :  -0.1640 B(  3-C ,  4-C ) :   1.3508
B(  3-C ,  5-C ) :   0.1963 B(  3-C ,  7-C ) :   0.1556 B(  3-C , 11-C ) :   0.4935
B(  3-C , 20-H ) :   0.1412 B(  3-C , 21-H ) :  -0.1072 B(  4-C ,  5-C ) :   0.8210
B(  4-C ,  6-H ) :   0.2185 B(  4-C ,  7-C ) :   0.7101 B(  4-C , 11-C ) :   0.3693
B(  4-C , 16-C ) :   0.1535 B(  5-C ,  6-H ) :   0.9195 B(  5-C ,  7-C ) :  -0.2002
B(  5-C , 21-H ) :  -0.1409 B(  7-C ,  8-H ) :   1.0337 B(  7-C ,  9-H ) :   0.9522
B(  7-C , 10-H ) :   0.9497 B( 11-C , 12-H ) :   0.9664 B( 11-C , 13-H ) :   0.9656
B( 11-C , 14-H ) :   1.0097 B( 15-H , 16-C ) :  -0.1181 B( 16-C , 17-C ) :   1.0701
B( 16-C , 20-H ) :   0.8787 B( 17-C , 18-H ) :   0.9302 B( 17-C , 19-H ) :   1.0638
B( 17-C , 20-H ) :  -0.1735

Dispersion correction           -0.026977593
FINAL SINGLE POINT ENERGY      -388.274234602504

DIPOLE MOMENT
-------------

Method             : SCF
Type of density    : Electron Density
Multiplicity       :   2
Irrep              :   0
Energy             :  -388.2472570091039756 Eh
Relativity type    :
Basis              : AO
                                X                 Y                 Z
Electronic contribution:      5.490411647      -1.249823524      -0.000591736
Nuclear contribution   :     -4.597722468       1.088585918       0.000480466
                        -----------------------------------------
Total Dipole Moment    :      0.892689179      -0.161237606      -0.000111271
                        -----------------------------------------
Magnitude (a.u.)       :      0.907133699
Magnitude (Debye)      :      2.305750623

Rotational constants in cm-1:             0.095239             0.029097             0.022475
Rotational constants in MHz :          2855.203991           872.315502           673.794268

                             ****ORCA TERMINATED NORMALLY****
TOTAL RUN TIME: 0 days 0 hours 11 minutes 42 seconds 519 msec
