                         Program Version 6.0.0  -   RELEASE  -
|  1> !r2SCANh aug-cc-pVTZ d3 TightSCF SlowConv RIJCOSX defgrid2
|  2>
|  3> %pal
|  4> nprocs 10
|  5> end
|  6>
|  7> %scf
|  8> MaxIter 1500
|  9> end
| 10>
| 11> %maxcore 3500
| 12>
| 13> !CPCM
| 14> %cpcm smd true
| 15> SMDsolvent "WATER"
| 16> surfacetype gepol_ses
| 17> rsolv 1.40
| 18> end
| 19>
| 20> * xyz 1 1
| 21>   C          -0.12783464168902      0.03134307060273     -1.09515140317282
| 22>   C          -0.07771588779790     -0.92971218052811     -0.16710947357547
| 23>   C          -0.12919605245006     -0.42683937130453      1.23585814524276
| 24>   N          -0.22178468713299      1.04844033562478      0.98180183190431
| 25>   C          -0.22815278386695      1.40845079820397     -0.48344802154556
| 26>   H          -0.00562746786650     -1.99097881364679     -0.41742121227399
| 27>   O          -0.28283959618216      1.84841054848959      1.83590548918913
| 28>   C          -0.08518619128336     -0.35879109937522     -2.55276447601453
| 29>   O          -0.01182556277165     -1.53029284400420     -2.84168103743639
| 30>   C          -1.55459876437257      2.13631852567497     -0.74219631083336
| 31>   H          -1.61559639608661      2.40210019987432     -1.80874507031995
| 32>   H          -2.41672834703621      1.49039588964646     -0.50990257113543
| 33>   H          -1.60867043617204      3.06315133921376     -0.14807750091220
| 34>   C           0.99197987220583      2.31175839591414     -0.70863005539040
| 35>   H           0.90571734984683      3.23356560719802     -0.11031871750380
| 36>   H           1.92856903642825      1.78807470587538     -0.45768655458116
| 37>   H           1.04150556124239      2.59281936172848     -1.77181047702734
| 38>   C           1.15110865335917     -0.68043554170839      2.04328624127400
| 39>   H           1.23899297088630     -1.76802501138656      2.19811060240581
| 40>   H           2.04596289628099     -0.33699333930403      1.49967780306167
| 41>   H           1.09453254399261     -0.18569022918863      3.02671243361448
| 42>   C          -1.38670020602967     -0.84436366873233      2.01059021085389
| 43>   H          -2.30386467942418     -0.61864219459089      1.44313189602476
| 44>   H          -1.33732117512029     -1.93426317158842      2.16621895625276
| 45>   H          -1.41858650993659     -0.34674593001915      2.99356252765365
| 46>   N          -0.13386543071122      0.63534107507626     -3.47284130418435
| 47>   H          -0.18439275173440      1.61992840290075     -3.25301637873183
| 48>   H          -0.10209108757800      0.36432528735361     -4.45187443683860
| 49> *
| 50>
| 51>                          ****END OF INPUT****

CARTESIAN COORDINATES (ANGSTROEM)
---------------------------------
  C     -0.127835    0.031343   -1.095151
  C     -0.077716   -0.929712   -0.167109
  C     -0.129196   -0.426839    1.235858
  N     -0.221785    1.048440    0.981802
  C     -0.228153    1.408451   -0.483448
  H     -0.005627   -1.990979   -0.417421
  O     -0.282840    1.848411    1.835905
  C     -0.085186   -0.358791   -2.552764
  O     -0.011826   -1.530293   -2.841681
  C     -1.554599    2.136319   -0.742196
  H     -1.615596    2.402100   -1.808745
  H     -2.416728    1.490396   -0.509903
  H     -1.608670    3.063151   -0.148078
  C      0.991980    2.311758   -0.708630
  H      0.905717    3.233566   -0.110319
  H      1.928569    1.788075   -0.457687
  H      1.041506    2.592819   -1.771810
  C      1.151109   -0.680436    2.043286
  H      1.238993   -1.768025    2.198111
  H      2.045963   -0.336993    1.499678
  H      1.094533   -0.185690    3.026712
  C     -1.386700   -0.844364    2.010590
  H     -2.303865   -0.618642    1.443132
  H     -1.337321   -1.934263    2.166219
  H     -1.418587   -0.346746    2.993563
  N     -0.133865    0.635341   -3.472841
  H     -0.184393    1.619928   -3.253016
  H     -0.102091    0.364325   -4.451874

 Total Charge           Charge          ....    1
 Multiplicity           Mult            ....    1
 Number of Electrons    NEL             ....   98
 Basis Dimension        Dim             ....  943

ORBITAL ENERGIES
----------------

  NO   OCC          E(Eh)            E(eV)
   0   2.0000     -19.267397      -524.2925
   1   2.0000     -19.105619      -519.8903
   2   2.0000     -14.554284      -396.0422
   3   2.0000     -14.339071      -390.1860
   4   2.0000     -10.287995      -279.9506
   5   2.0000     -10.268446      -279.4186
   6   2.0000     -10.264045      -279.2989
   7   2.0000     -10.204814      -277.6871
   8   2.0000     -10.200098      -277.5588
   9   2.0000     -10.179740      -277.0048
  10   2.0000     -10.179696      -277.0036
  11   2.0000     -10.178146      -276.9614
  12   2.0000     -10.178096      -276.9601
  13   2.0000      -1.289740       -35.0956
  14   2.0000      -1.073457       -29.2103
  15   2.0000      -0.967172       -26.3181
  16   2.0000      -0.922175       -25.0937
  17   2.0000      -0.862323       -23.4650
  18   2.0000      -0.795694       -21.6519
  19   2.0000      -0.759756       -20.6740
  20   2.0000      -0.724721       -19.7207
  21   2.0000      -0.712908       -19.3992
  22   2.0000      -0.669387       -18.2149
  23   2.0000      -0.655966       -17.8497
  24   2.0000      -0.617419       -16.8008
  25   2.0000      -0.593424       -16.1479
  26   2.0000      -0.564015       -15.3476
  27   2.0000      -0.545417       -14.8415
  28   2.0000      -0.542466       -14.7613
  29   2.0000      -0.500626       -13.6227
  30   2.0000      -0.486740       -13.2449
  31   2.0000      -0.460570       -12.5327
  32   2.0000      -0.454728       -12.3738
  33   2.0000      -0.450625       -12.2621
  34   2.0000      -0.436531       -11.8786
  35   2.0000      -0.432786       -11.7767
  36   2.0000      -0.425965       -11.5911
  37   2.0000      -0.414873       -11.2893
  38   2.0000      -0.411365       -11.1938
  39   2.0000      -0.399465       -10.8700
  40   2.0000      -0.393849       -10.7172
  41   2.0000      -0.373999       -10.1770
  42   2.0000      -0.373850       -10.1730
  43   2.0000      -0.367259        -9.9936
  44   2.0000      -0.362489        -9.8638
  45   2.0000      -0.332306        -9.0425
  46   2.0000      -0.287785        -7.8310
  47   2.0000      -0.285254        -7.7622
  48   2.0000      -0.281680        -7.6649
  49   0.0000      -0.190518        -5.1843
  50   0.0000      -0.076360        -2.0779
  51   0.0000       0.005302         0.1443
  52   0.0000       0.018046         0.4911
  53   0.0000       0.021490         0.5848

MULLIKEN ATOMIC CHARGES
-----------------------
   0 C :    1.407699
   1 C :   -1.055272
   2 C :    1.066665
   3 N :    1.307757
   4 C :    1.080915
   5 H :    0.352184
   6 O :   -0.991939
   7 C :    0.534116
   8 O :   -1.064909
   9 C :   -0.993066
  10 H :    0.266456
  11 H :    0.243567
  12 H :    0.142586
  13 C :   -0.992127
  14 H :    0.142657
  15 H :    0.237216
  16 H :    0.270651
  17 C :   -1.106456
  18 H :    0.189419
  19 H :    0.261370
  20 H :    0.182489
  21 C :   -1.104060
  22 H :    0.258750
  23 H :    0.188628
  24 H :    0.186654
  25 N :   -0.246444
  26 H :    0.115963
  27 H :    0.118529
Sum of atomic charges:    1.0000000

LOEWDIN ATOMIC CHARGES
----------------------
   0 C :   -0.062109
   1 C :    0.269765
   2 C :   -0.395514
   3 N :   -0.043663
   4 C :   -0.385370
   5 H :   -0.127924
   6 O :    0.653932
   7 C :   -0.680770
   8 O :    0.439034
   9 C :    0.643715
  10 H :   -0.140036
  11 H :   -0.126937
  12 H :   -0.134102
  13 C :    0.643721
  14 H :   -0.134293
  15 H :   -0.126544
  16 H :   -0.140613
  17 C :    0.643553
  18 H :   -0.124262
  19 H :   -0.131363
  20 H :   -0.136355
  21 C :    0.643798
  22 H :   -0.131486
  23 H :   -0.124201
  24 H :   -0.136448
  25 N :    0.890329
  26 H :   -0.302840
  27 H :   -0.243018

  Mayer bond orders larger than 0.100000
B(  0-C ,  1-C ) :   0.4345 B(  0-C ,  2-C ) :   0.1190 B(  0-C ,  3-N ) :  -0.3365
B(  0-C ,  4-C ) :   0.7065 B(  0-C ,  5-H ) :  -0.1539 B(  0-C ,  7-C ) :  -0.5589
B(  0-C ,  8-O ) :   0.6463 B(  0-C , 25-N ) :  -0.3235 B(  1-C ,  2-C ) :   1.1075
B(  1-C ,  3-N ) :  -0.3384 B(  1-C ,  5-H ) :   0.8905 B(  1-C ,  7-C ) :   0.6932
B(  1-C ,  8-O ) :  -0.1121 B(  2-C ,  3-N ) :   1.1642 B(  2-C ,  6-O ) :  -0.2219
B(  2-C ,  7-C ) :  -0.2115 B(  2-C , 17-C ) :   0.3719 B(  2-C , 21-C ) :   0.3838
B(  3-N ,  4-C ) :   1.4116 B(  3-N ,  6-O ) :   0.3784 B(  4-C ,  7-C ) :   0.4020
B(  4-C ,  9-C ) :   0.4826 B(  4-C , 13-C ) :   0.4767 B(  7-C ,  8-O ) :   0.4296
B(  7-C , 25-N ) :   1.1534 B(  9-C , 10-H ) :   0.9154 B(  9-C , 11-H ) :   0.9582
B(  9-C , 12-H ) :   1.0819 B(  9-C , 13-C ) :   0.1227 B( 13-C , 14-H ) :   1.0816
B( 13-C , 15-H ) :   0.9670 B( 13-C , 16-H ) :   0.9073 B( 17-C , 18-H ) :   1.0464
B( 17-C , 19-H ) :   0.9426 B( 17-C , 20-H ) :   1.0505 B( 17-C , 21-C ) :   0.2214
B( 21-C , 22-H ) :   0.9469 B( 21-C , 23-H ) :   1.0478 B( 21-C , 24-H ) :   1.0439
B( 25-N , 26-H ) :   1.0200 B( 25-N , 27-H ) :   0.9782

Dispersion correction           -0.010794062
FINAL SINGLE POINT ENERGY      -611.580151135828

DIPOLE MOMENT
-------------

Method             : SCF
Type of density    : Electron Density
Multiplicity       :   1
Irrep              :   0
Energy             :  -611.5693570734584910 Eh
Relativity type    :
Basis              : AO
                                X                 Y                 Z
Electronic contribution:      0.140069825      -1.312947295      -3.210726285
Nuclear contribution   :     -0.277270832       3.421665314       4.666505617
                        -----------------------------------------
Total Dipole Moment    :     -0.137201007       2.108718019       1.455779332
                        -----------------------------------------
Magnitude (a.u.)       :      2.566088319
Magnitude (Debye)      :      6.522478157

Rotational constants in cm-1:             0.040160             0.022299             0.017655
Rotational constants in MHz :          1203.956703           668.492574           529.280087

                             ****ORCA TERMINATED NORMALLY****
TOTAL RUN TIME: 0 days 0 hours 8 minutes 16 seconds 996 msec
