                         Program Version 6.0.0  -   RELEASE  -
|  1> !B3LYP aug-cc-pVTZ d3 TightSCF SlowConv RIJCOSX defgrid2
|  2>
|  3> %pal
|  4> nprocs 4
|  5> end
|  6>
|  7> %scf
|  8> MaxIter 1500
|  9> end
| 10>
| 11> %maxcore 3000
| 12>
| 13> !CPCM
| 14> %cpcm smd true
| 15> SMDsolvent "MeCN"
| 16> surfacetype gepol_ses
| 17> rsolv 2.19
| 18> end
| 19>
| 20> * xyz 0 1
| 21> C          -0.09723520138673     -1.03437639103764      0.00347054225631
| 22> C          -1.47492894930884     -1.20047361725562      0.00696317861110
| 23> C          -2.34578623174672     -0.10040313113454      0.00646178626940
| 24> C          -1.77456389354337      1.17444029815347      0.00609068858276
| 25> C          -0.39219290951861      1.34431389323203      0.00262007400835
| 26> C           0.48066721969256      0.24734111354836      0.00061801253520
| 27> C           1.92745712323043      0.48416048286104     -0.00147397271183
| 28> C           2.90821751377421     -0.43224406598278     -0.00115903608211
| 29> C           4.36623513102305     -0.11505487673646     -0.00400250033420
| 30> H           4.87200794201926     -0.54390247209158      0.88189528271805
| 31> H           4.86926753302145     -0.54728733840504     -0.88981811387895
| 32> H           4.54542156577808      0.97343112133202     -0.00638255069427
| 33> H           2.64848728832259     -1.49940771664298      0.00136069468406
| 34> H           2.21863839458192      1.54365509753515     -0.00378021817366
| 35> H           0.02556550649537      2.35646498548500      0.00378810560732
| 36> H          -2.42480036039019      2.05550589684769      0.01005021755173
| 37> C          -3.83450513941386     -0.29675754696210     -0.01137750175061
| 38> H          -4.36818359568584      0.64375253893058      0.20246833077396
| 39> H          -4.17808733966479     -0.65741939040861     -0.99869388532750
| 40> H          -4.15169482101390     -1.04597884024218      0.73497377180135
| 41> H          -1.89116416828829     -2.21365122416981      0.01168808196327
| 42> H           0.54303149202221     -1.92102021685601      0.00533651159029
| 43> *
| 44>
| 45>                          ****END OF INPUT****

CARTESIAN COORDINATES (ANGSTROEM)
---------------------------------
  C     -0.097235   -1.034376    0.003471
  C     -1.474929   -1.200474    0.006963
  C     -2.345786   -0.100403    0.006462
  C     -1.774564    1.174440    0.006091
  C     -0.392193    1.344314    0.002620
  C      0.480667    0.247341    0.000618
  C      1.927457    0.484160   -0.001474
  C      2.908218   -0.432244   -0.001159
  C      4.366235   -0.115055   -0.004003
  H      4.872008   -0.543902    0.881895
  H      4.869268   -0.547287   -0.889818
  H      4.545422    0.973431   -0.006383
  H      2.648487   -1.499408    0.001361
  H      2.218638    1.543655   -0.003780
  H      0.025566    2.356465    0.003788
  H     -2.424800    2.055506    0.010050
  C     -3.834505   -0.296758   -0.011378
  H     -4.368184    0.643753    0.202468
  H     -4.178087   -0.657419   -0.998694
  H     -4.151695   -1.045979    0.734974
  H     -1.891164   -2.213651    0.011688
  H      0.543031   -1.921020    0.005337

 Total Charge           Charge          ....    0
 Multiplicity           Mult            ....    1
 Number of Electrons    NEL             ....   72
 Basis Dimension        Dim             ....  736

ORBITAL ENERGIES
----------------

  NO   OCC          E(Eh)            E(eV)
   0   2.0000     -10.182075      -277.0684
   1   2.0000     -10.181520      -277.0532
   2   2.0000     -10.173235      -276.8278
   3   2.0000     -10.172618      -276.8110
   4   2.0000     -10.171996      -276.7941
   5   2.0000     -10.170898      -276.7642
   6   2.0000     -10.170167      -276.7443
   7   2.0000     -10.169294      -276.7206
   8   2.0000     -10.162555      -276.5372
   9   2.0000     -10.162126      -276.5255
  10   2.0000      -0.859500       -23.3882
  11   2.0000      -0.800952       -21.7950
  12   2.0000      -0.761192       -20.7131
  13   2.0000      -0.741469       -20.1764
  14   2.0000      -0.701001       -19.0752
  15   2.0000      -0.653406       -17.7801
  16   2.0000      -0.607085       -16.5196
  17   2.0000      -0.581176       -15.8146
  18   2.0000      -0.543351       -14.7853
  19   2.0000      -0.499228       -13.5847
  20   2.0000      -0.465015       -12.6537
  21   2.0000      -0.448783       -12.2120
  22   2.0000      -0.426647       -11.6097
  23   2.0000      -0.413061       -11.2400
  24   2.0000      -0.411877       -11.2077
  25   2.0000      -0.407237       -11.0815
  26   2.0000      -0.404208       -10.9990
  27   2.0000      -0.373786       -10.1712
  28   2.0000      -0.372243       -10.1292
  29   2.0000      -0.364844        -9.9279
  30   2.0000      -0.348240        -9.4761
  31   2.0000      -0.337776        -9.1914
  32   2.0000      -0.326901        -8.8954
  33   2.0000      -0.288112        -7.8399
  34   2.0000      -0.255401        -6.9498
  35   2.0000      -0.214793        -5.8448
  36   0.0000      -0.036164        -0.9841
  37   0.0000      -0.013697        -0.3727
  38   0.0000      -0.002094        -0.0570
  39   0.0000       0.005004         0.1362
  40   0.0000       0.011443         0.3114

MULLIKEN ATOMIC CHARGES
-----------------------
   0 C :   -0.781819
   1 C :   -1.145270
   2 C :    1.449534
   3 C :   -0.884403
   4 C :   -1.061293
   5 C :    2.292484
   6 C :   -0.140673
   7 C :   -0.160346
   8 C :   -0.872388
   9 H :    0.186175
  10 H :    0.181063
  11 H :    0.258006
  12 H :    0.278045
  13 H :    0.028463
  14 H :    0.139867
  15 H :    0.210256
  16 C :   -0.757374
  17 H :    0.206403
  18 H :    0.239437
  19 H :    0.215185
  20 H :    0.256329
  21 H :   -0.137684
Sum of atomic charges:   -0.0000000

LOEWDIN ATOMIC CHARGES
----------------------
   0 C :    0.203768
   1 C :    0.207747
   2 C :   -0.144108
   3 C :    0.206935
   4 C :    0.197894
   5 C :   -0.153389
   6 C :    0.193828
   7 C :    0.194274
   8 C :    0.539358
   9 H :   -0.163128
  10 H :   -0.163105
  11 H :   -0.172503
  12 H :   -0.181811
  13 H :   -0.181901
  14 H :   -0.166044
  15 H :   -0.164990
  16 C :    0.562419
  17 H :   -0.167606
  18 H :   -0.151438
  19 H :   -0.158002
  20 H :   -0.159084
  21 H :   -0.179113

  Mayer bond orders larger than 0.100000
B(  0-C ,  1-C ) :   0.9895 B(  0-C ,  4-C ) :  -0.6177 B(  0-C ,  5-C ) :   0.1596
B(  0-C ,  6-C ) :   0.2661 B(  0-C ,  7-C ) :   0.1140 B(  0-C , 21-H ) :   1.7669
B(  1-C ,  2-C ) :   0.7202 B(  1-C ,  7-C ) :  -0.1155 B(  1-C , 16-C ) :   0.1149
B(  1-C , 20-H ) :   0.9467 B(  1-C , 21-H ) :  -0.1287 B(  2-C ,  3-C ) :   0.6380
B(  2-C ,  6-C ) :   0.1460 B(  2-C ,  7-C ) :   0.1056 B(  2-C , 16-C ) :   0.2312
B(  2-C , 19-H ) :  -0.1034 B(  2-C , 21-H ) :  -0.1482 B(  3-C ,  4-C ) :   1.3838
B(  3-C ,  6-C ) :  -0.1068 B(  3-C , 15-H ) :   1.0416 B(  3-C , 21-H ) :  -0.1092
B(  4-C ,  5-C ) :  -0.2370 B(  4-C ,  6-C ) :   0.1162 B(  4-C ,  7-C ) :   0.1228
B(  4-C , 14-H ) :   1.3863 B(  5-C ,  7-C ) :  -0.1353 B(  5-C , 14-H ) :  -0.1903
B(  5-C , 21-H ) :  -0.3565 B(  6-C ,  7-C ) :   0.9766 B(  6-C , 13-H ) :   1.2470
B(  7-C ,  8-C ) :   0.6072 B(  7-C , 12-H ) :   1.1483 B(  7-C , 13-H ) :  -0.1279
B(  8-C ,  9-H ) :   1.0489 B(  8-C , 10-H ) :   1.0544 B(  8-C , 11-H ) :   0.9348
B(  8-C , 12-H ) :  -0.1646 B( 12-H , 21-H ) :  -0.1007 B( 14-H , 21-H ) :   0.1436
B( 16-C , 17-H ) :   1.0022 B( 16-C , 18-H ) :   1.0021 B( 16-C , 19-H ) :   1.0138

Dispersion correction           -0.037301572
FINAL SINGLE POINT ENERGY      -388.211382795382

DIPOLE MOMENT
-------------

Method             : SCF
Type of density    : Electron Density
Multiplicity       :   1
Irrep              :   0
Energy             :  -388.1740812233317683 Eh
Relativity type    :
Basis              : AO
                                X                 Y                 Z
Electronic contribution:     -2.558294000       0.668363991       0.032100958
Nuclear contribution   :      2.550584305      -0.802045271      -0.048555466
                        -----------------------------------------
Total Dipole Moment    :     -0.007709695      -0.133681280      -0.016454509
                        -----------------------------------------
Magnitude (a.u.)       :      0.134910618
Magnitude (Debye)      :      0.342915539

Rotational constants in cm-1:             0.159882             0.020202             0.018058
Rotational constants in MHz :          4793.148645           605.632668           541.352924

                             ****ORCA TERMINATED NORMALLY****
TOTAL RUN TIME: 0 days 0 hours 4 minutes 51 seconds 298 msec
