                         Program Version 6.0.0  -   RELEASE  -
|  1> !TPSSh opt aug-cc-pVTZ d3 TightSCF SlowConv RIJCOSX defgrid2
|  2>
|  3> %pal
|  4> nprocs 8
|  5> end
|  6>
|  7> %scf
|  8> MaxIter 1500
|  9> end
| 10>
| 11> %maxcore 3500
| 12>
| 13> !CPCM
| 14> %cpcm smd true
| 15> SMDsolvent "MeCN"
| 16> surfacetype gepol_ses
| 17> rsolv 2.19
| 18> end
| 19>
| 20> * xyz 0 1
| 21> C           0.89625463995169     -1.41558669005642      0.00000212581931
| 22> C           2.11505403593339     -0.74430991173074     -0.00000149555587
| 23> C           2.17542044953981      0.66118914619392      0.00000118790347
| 24> C           1.02073349490689      1.43411488081899      0.00000740816991
| 25> C          -0.21978579987357      0.78024255664200      0.00000882693723
| 26> C          -0.24734548849214     -0.62587635066739      0.00000530658827
| 27> O          -1.52601546021974     -1.07032389872869      0.00001342203642
| 28> C          -2.31826979056253      0.02952741578344      0.00002075604744
| 29> C          -1.60215379632981      1.18293934552638      0.00000260268759
| 30> H          -2.00251324968155      2.19537072670951     -0.00000431996804
| 31> H          -3.38877681335679     -0.16931307117016      0.00002936397660
| 32> H           1.07767380530056      2.52621447644394      0.00000712336235
| 33> H           3.15304280126425      1.15182904763925     -0.00000361572869
| 34> H           3.04441141911605     -1.32116718166862     -0.00000606251848
| 35> H           0.83131985250349     -2.50587419173540      0.00000217024247
| 36> *
| 37>
| 38>                          ****END OF INPUT****
 Total Charge           Charge          ....    0
 Multiplicity           Mult            ....    1
 Number of Electrons    NEL             ....   62
Dispersion correction           -0.018328424
FINAL SINGLE POINT ENERGY      -383.862820207324
Dispersion correction             ... done (  0.1 sec)
Dispersion correction           -0.018376526
FINAL SINGLE POINT ENERGY      -383.863638301634
Dispersion correction             ... done (  0.1 sec)
Dispersion correction           -0.018389018
FINAL SINGLE POINT ENERGY      -383.863740970049
Dispersion correction             ... done (  0.1 sec)
Dispersion correction           -0.018390510
FINAL SINGLE POINT ENERGY      -383.863760304944
Dispersion correction             ... done (  0.1 sec)
                    ***********************HURRAY********************

CARTESIAN COORDINATES (ANGSTROEM)
---------------------------------
  C      0.899518   -1.417415   -0.000360
  C      2.115760   -0.742225    0.000026
  C      2.172407    0.660870   -0.000085
  C      1.018326    1.432480   -0.000450
  C     -0.218386    0.775985   -0.000667
  C     -0.237997   -0.627479   -0.000736
  O     -1.530660   -1.081794   -0.000541
  C     -2.324917    0.040349   -0.000067
  C     -1.599804    1.180973   -0.000246
  H     -1.993721    2.184767    0.000917
  H     -3.385360   -0.150496    0.001119
  H      1.073859    2.514193   -0.000455
  H      3.139942    1.148080    0.000567
  H      3.037268   -1.311174    0.001118
  H      0.842814   -2.498136   -0.000055

 Multiplicity           Mult            ....    1
 Number of Electrons    NEL             ....   62
 Basis Dimension        Dim             ....  552

ORBITAL ENERGIES
----------------

  NO   OCC          E(Eh)            E(eV)
   0   2.0000     -19.119733      -520.2744
   1   2.0000     -10.169704      -276.7317
   2   2.0000     -10.169347      -276.7220
   3   2.0000     -10.124505      -275.5018
   4   2.0000     -10.121019      -275.4069
   5   2.0000     -10.119110      -275.3550
   6   2.0000     -10.117031      -275.2984
   7   2.0000     -10.115652      -275.2609
   8   2.0000     -10.113563      -275.2040
   9   2.0000      -1.085549       -29.5393
  10   2.0000      -0.838871       -22.8268
  11   2.0000      -0.780676       -21.2433
  12   2.0000      -0.730372       -19.8744
  13   2.0000      -0.710603       -19.3365
  14   2.0000      -0.613665       -16.6987
  15   2.0000      -0.581903       -15.8344
  16   2.0000      -0.567001       -15.4289
  17   2.0000      -0.502397       -13.6709
  18   2.0000      -0.475544       -12.9402
  19   2.0000      -0.461230       -12.5507
  20   2.0000      -0.442165       -12.0319
  21   2.0000      -0.422571       -11.4987
  22   2.0000      -0.405131       -11.0242
  23   2.0000      -0.387644       -10.5483
  24   2.0000      -0.369462       -10.0536
  25   2.0000      -0.347269        -9.4497
  26   2.0000      -0.343790        -9.3550
  27   2.0000      -0.322913        -8.7869
  28   2.0000      -0.287734        -7.8297
  29   2.0000      -0.235185        -6.3997
  30   2.0000      -0.217640        -5.9223
  31   0.0000      -0.040122        -1.0918
  32   0.0000      -0.011386        -0.3098
  33   0.0000      -0.001484        -0.0404
  34   0.0000       0.010008         0.2723
  35   0.0000       0.013900         0.3782

MULLIKEN ATOMIC CHARGES
-----------------------
   0 C :   -0.838953
   1 C :   -0.101585
   2 C :   -0.410333
   3 C :   -0.485076
   4 C :    0.929489
   5 C :    0.299231
   6 O :   -0.607013
   7 C :   -0.237810
   8 C :   -0.499040
   9 H :    0.270294
  10 H :    0.424605
  11 H :   -0.084130
  12 H :    0.576818
  13 H :    0.300062
  14 H :    0.463442
Sum of atomic charges:    0.0000000

LOEWDIN ATOMIC CHARGES
----------------------
   0 C :    0.224114
   1 C :    0.182439
   2 C :    0.183584
   3 C :    0.220560
   4 C :   -0.165861
   5 C :   -0.398907
   6 O :    0.616200
   7 C :   -0.006308
   8 C :    0.223549
   9 H :   -0.177597
  10 H :   -0.183238
  11 H :   -0.173995
  12 H :   -0.186359
  13 H :   -0.184506
  14 H :   -0.173674

  Mayer bond orders larger than 0.100000
B(  0-C ,  1-C ) :   1.4919 B(  0-C ,  2-C ) :   0.3020 B(  0-C ,  4-C ) :   0.1258
B(  0-C ,  5-C ) :   1.2974 B(  0-C ,  6-O ) :   0.1259 B(  0-C , 13-H ) :   0.1071
B(  0-C , 14-H ) :   0.2755 B(  1-C ,  2-C ) :   1.2442 B(  1-C ,  3-C ) :  -0.3189
B(  1-C ,  5-C ) :  -0.4908 B(  1-C ,  8-C ) :   0.1401 B(  1-C , 12-H ) :   0.1940
B(  1-C , 13-H ) :   0.7206 B(  1-C , 14-H ) :   0.1677 B(  2-C ,  3-C ) :   1.3255
B(  2-C ,  5-C ) :   0.2115 B(  2-C ,  8-C ) :   0.1791 B(  2-C , 12-H ) :   0.3047
B(  3-C ,  4-C ) :   0.8383 B(  3-C ,  5-C ) :  -0.6102 B(  3-C , 11-H ) :   1.4667
B(  4-C ,  5-C ) :   1.1843 B(  4-C ,  6-O ) :  -0.1053 B(  4-C ,  7-C ) :  -0.2932
B(  4-C ,  8-C ) :   0.6303 B(  4-C , 13-H ) :  -0.1215 B(  4-C , 14-H ) :   0.1822
B(  5-C ,  6-O ) :   0.3868 B(  5-C ,  8-C ) :   0.2683 B(  5-C , 11-H ) :   0.1318
B(  5-C , 13-H ) :   0.1532 B(  6-O ,  7-C ) :   1.1729 B(  7-C ,  8-C ) :   1.3600
B(  7-C , 10-H ) :   0.7590 B(  8-C ,  9-H ) :   0.9062 B(  8-C , 11-H ) :  -0.1008

Dispersion correction           -0.018389617
FINAL SINGLE POINT ENERGY      -383.863761497316

DIPOLE MOMENT
-------------

Method             : SCF
Type of density    : Electron Density
Multiplicity       :   1
Irrep              :   0
Energy             :  -383.8453718802055619 Eh
Relativity type    :
Basis              : AO
                                X                 Y                 Z
Electronic contribution:     -2.687780979      -1.388630998      -0.002481662
Nuclear contribution   :      2.516373535       1.742543062       0.004746894
                        -----------------------------------------
Total Dipole Moment    :     -0.171407444       0.353912063       0.002265232
                        -----------------------------------------
Magnitude (a.u.)       :      0.393242154
Magnitude (Debye)      :      0.999542121

Rotational constants in cm-1:             0.131033             0.055507             0.038990
Rotational constants in MHz :          3928.285070          1664.067047          1168.905321

                             ****ORCA TERMINATED NORMALLY****
TOTAL RUN TIME: 0 days 0 hours 16 minutes 9 seconds 313 msec
