                         Program Version 6.0.0  -   RELEASE  -
|  1> !r2SCANh aug-cc-pVTZ d3 TightSCF SlowConv RIJCOSX defgrid2
|  2>
|  3> %pal
|  4> nprocs 15
|  5> end
|  6>
|  7> %scf
|  8> MaxIter 1500
|  9> end
| 10>
| 11> %maxcore 3500
| 12>
| 13> !CPCM
| 14> %cpcm smd true
| 15> SMDsolvent "WATER"
| 16> surfacetype gepol_ses
| 17> rsolv 1.40
| 18> end
| 19>
| 20> * xyz -1 2
| 21> C           0.00000004903308      0.00000285676658     -0.07927677165041
| 22> C          -1.16509262301003     -0.35747694639887      0.71050337241250
| 23> C           1.16509408020432      0.35747595685912      0.71050209383188
| 24> H          -2.06362612463752     -0.63312787458135      0.14412716721423
| 25> H           2.06363121454948      0.63312802636862      0.14412668715351
| 26> C          -1.16509507944368     -0.35747268029138      2.08215495800193
| 27> C           1.16509160172280      0.35747686687021      2.08215370735606
| 28> H          -2.06363192155032     -0.63312031850306      2.64853168475760
| 29> H           2.06362610689310      0.63313254757272      2.64853030477196
| 30> C           0.00000131049034     -0.00000637822162      2.87193489848665
| 31> O           0.00000216772010     -0.00000733437022      4.12586654778909
| 32> O          -0.00000078197165     -0.00000472207076     -1.33320665012500
| 33> *
| 34>
| 35>                          ****END OF INPUT****

CARTESIAN COORDINATES (ANGSTROEM)
---------------------------------
  C      0.000000    0.000003   -0.079277
  C     -1.165093   -0.357477    0.710503
  C      1.165094    0.357476    0.710502
  H     -2.063626   -0.633128    0.144127
  H      2.063631    0.633128    0.144127
  C     -1.165095   -0.357473    2.082155
  C      1.165092    0.357477    2.082154
  H     -2.063632   -0.633120    2.648532
  H      2.063626    0.633133    2.648530
  C      0.000001   -0.000006    2.871935
  O      0.000002   -0.000007    4.125867
  O     -0.000001   -0.000005   -1.333207

 Total Charge           Charge          ....   -1
 Multiplicity           Mult            ....    2
 Number of Electrons    NEL             ....   57
 Basis Dimension        Dim             ....  460

ORBITAL ENERGIES
----------------
                 SPIN UP ORBITALS
  NO   OCC          E(Eh)            E(eV)
   0   1.0000     -19.084271      -519.3094
   1   1.0000     -19.084269      -519.3093
   2   1.0000     -10.212646      -277.9002
   3   1.0000     -10.212627      -277.8997
   4   1.0000     -10.154513      -276.3183
   5   1.0000     -10.154496      -276.3179
   6   1.0000     -10.153885      -276.3013
   7   1.0000     -10.153868      -276.3008
   8   1.0000      -1.017251       -27.6808
   9   1.0000      -1.015271       -27.6269
  10   1.0000      -0.823229       -22.4012
  11   1.0000      -0.742092       -20.1934
  12   1.0000      -0.685434       -18.6516
  13   1.0000      -0.598167       -16.2769
  14   1.0000      -0.561609       -15.2822
  15   1.0000      -0.469463       -12.7747
  16   1.0000      -0.462622       -12.5886
  17   1.0000      -0.442053       -12.0289
  18   1.0000      -0.410795       -11.1783
  19   1.0000      -0.402464       -10.9516
  20   1.0000      -0.398685       -10.8488
  21   1.0000      -0.381321       -10.3763
  22   1.0000      -0.372890       -10.1468
  23   1.0000      -0.346102        -9.4179
  24   1.0000      -0.285895        -7.7796
  25   1.0000      -0.259000        -7.0477
  26   1.0000      -0.243912        -6.6372
  27   1.0000      -0.235504        -6.4084
  28   1.0000      -0.167979        -4.5710
  29   0.0000      -0.026043        -0.7087
  30   0.0000       0.010942         0.2978
  31   0.0000       0.014050         0.3823
  32   0.0000       0.027397         0.7455
  33   0.0000       0.029275         0.7966

                 SPIN DOWN ORBITALS
  NO   OCC          E(Eh)            E(eV)
   0   1.0000     -19.076164      -519.0888
   1   1.0000     -19.076161      -519.0887
   2   1.0000     -10.210720      -277.8478
   3   1.0000     -10.210703      -277.8473
   4   1.0000     -10.153232      -276.2835
   5   1.0000     -10.153216      -276.2830
   6   1.0000     -10.152598      -276.2662
   7   1.0000     -10.152583      -276.2658
   8   1.0000      -1.004501       -27.3339
   9   1.0000      -1.002348       -27.2753
  10   1.0000      -0.815681       -22.1958
  11   1.0000      -0.738429       -20.0937
  12   1.0000      -0.671779       -18.2800
  13   1.0000      -0.592849       -16.1322
  14   1.0000      -0.556244       -15.1362
  15   1.0000      -0.465030       -12.6541
  16   1.0000      -0.461082       -12.5467
  17   1.0000      -0.436792       -11.8857
  18   1.0000      -0.398174       -10.8349
  19   1.0000      -0.397113       -10.8060
  20   1.0000      -0.386156       -10.5078
  21   1.0000      -0.369042       -10.0421
  22   1.0000      -0.349679        -9.5152
  23   1.0000      -0.343753        -9.3540
  24   1.0000      -0.254458        -6.9242
  25   1.0000      -0.248220        -6.7544
  26   1.0000      -0.237463        -6.4617
  27   1.0000      -0.229503        -6.2451
  28   0.0000      -0.108211        -2.9446
  29   0.0000      -0.007119        -0.1937
  30   0.0000       0.015057         0.4097
  31   0.0000       0.028085         0.7642
  32   0.0000       0.029580         0.8049

MULLIKEN ATOMIC CHARGES AND SPIN POPULATIONS
--------------------------------------------
   0 C :    1.030093    0.110234
   1 C :   -0.628990    0.071119
   2 C :   -0.628870    0.070919
   3 H :    0.444564   -0.000427
   4 H :    0.444285   -0.000452
   5 C :   -0.628701    0.071039
   6 C :   -0.628567    0.070812
   7 H :    0.444356   -0.000448
   8 H :    0.444206   -0.000353
   9 C :    1.030192    0.110292
  10 O :   -1.161375    0.248633
  11 O :   -1.161193    0.248633
Sum of atomic charges         :   -1.0000000

LOEWDIN ATOMIC CHARGES AND SPIN POPULATIONS
-------------------------------------------
   0 C :   -0.703385    0.123411
   1 C :    0.142469    0.073548
   2 C :    0.142471    0.073555
   3 H :   -0.194615    0.007118
   4 H :   -0.194608    0.007120
   5 C :    0.142471    0.073555
   6 C :    0.142469    0.073547
   7 H :   -0.194609    0.007120
   8 H :   -0.194614    0.007118
   9 C :   -0.703383    0.123412
  10 O :    0.307666    0.215248
  11 O :    0.307668    0.215248

  Mayer bond orders larger than 0.100000
B(  0-C ,  1-C ) :   1.0197 B(  0-C ,  2-C ) :   1.0197 B(  0-C ,  5-C ) :  -0.1213
B(  0-C ,  6-C ) :  -0.1217 B(  0-C ,  9-C ) :   0.1920 B(  0-C , 11-O ) :   0.5249
B(  1-C ,  2-C ) :   0.4660 B(  1-C ,  3-H ) :   0.4697 B(  1-C ,  5-C ) :   1.4414
B(  1-C ,  6-C ) :  -0.1788 B(  1-C ,  9-C ) :  -0.1213 B(  1-C , 11-O ) :   0.1588
B(  2-C ,  4-H ) :   0.4699 B(  2-C ,  5-C ) :  -0.1792 B(  2-C ,  6-C ) :   1.4415
B(  2-C ,  9-C ) :  -0.1215 B(  2-C , 11-O ) :   0.1595 B(  5-C ,  6-C ) :   0.4656
B(  5-C ,  7-H ) :   0.4699 B(  5-C ,  9-C ) :   1.0196 B(  5-C , 10-O ) :   0.1593
B(  6-C ,  8-H ) :   0.4702 B(  6-C ,  9-C ) :   1.0201 B(  6-C , 10-O ) :   0.1591
B(  9-C , 10-O ) :   0.5243

Dispersion correction           -0.003516972
FINAL SINGLE POINT ENERGY      -381.538826272325

DIPOLE MOMENT
-------------

Method             : SCF
Type of density    : Electron Density
Multiplicity       :   2
Irrep              :   0
Energy             :  -381.5353093001446041 Eh
Relativity type    :
Basis              : AO
                                X                 Y                 Z
Electronic contribution:     -0.000001899      -0.000006036      -0.000010663
Nuclear contribution   :     -0.000001132       0.000017886      -0.000000443
                        -----------------------------------------
Total Dipole Moment    :     -0.000003030       0.000011850      -0.000011106
                        -----------------------------------------
Magnitude (a.u.)       :      0.000016521
Magnitude (Debye)      :      0.000041994

Rotational constants in cm-1:             0.187010             0.052742             0.041140
Rotational constants in MHz :          5606.406459          1581.174709          1233.336765

                             ****ORCA TERMINATED NORMALLY****
TOTAL RUN TIME: 0 days 0 hours 3 minutes 16 seconds 532 msec
