                         Program Version 6.0.0  -   RELEASE  -
|  1> !B3LYP aug-cc-pVTZ d3 TightSCF SlowConv RIJCOSX defgrid2
|  2>
|  3> %pal
|  4> nprocs 4
|  5> end
|  6>
|  7> %scf
|  8> MaxIter 1500
|  9> end
| 10>
| 11> %maxcore 3000
| 12>
| 13> !CPCM
| 14> %cpcm smd true
| 15> SMDsolvent "MeCN"
| 16> surfacetype gepol_ses
| 17> rsolv 2.19
| 18> end
| 19>
| 20> * xyz 0 2
| 21> S          -0.00010950333410      1.33232152061846      0.00000284685572
| 22> C          -1.36367602339461      0.23464932550616     -0.00507122495906
| 23> C          -2.63111207479134      0.80918677441119     -0.00931514148930
| 24> C          -3.79749598688692      0.01748913706240     -0.01353133573099
| 25> C          -3.62690722369362     -1.39108123583356     -0.01295952620618
| 26> C          -2.36711161265690     -1.94934818919206     -0.00874256384629
| 27> H          -2.23684953206305     -3.03459019141420     -0.00838133626109
| 28> C          -1.17821016281749     -1.17668732648083     -0.00472311773149
| 29> N          -0.00002243259599     -1.83446497066754     -0.00098097198001
| 30> C           1.17812817196274     -1.17662234567149      0.00321348810966
| 31> C           2.36706725678156     -1.94922452722425      0.00667750909652
| 32> C           3.62683749655594     -1.39090083721577      0.01126100122058
| 33> C           3.79735129127031      0.01767608816689      0.01293153169759
| 34> C           2.63092897415049      0.80931688655999      0.00908647542932
| 35> C           1.36351983422924      0.23472394637557      0.00444992884257
| 36> H           2.70292817680075      1.89826895685548      0.00952338683142
| 37> N           5.04756390584320      0.58778935524973      0.01788863149424
| 38> C           5.18172091093512      2.01927291145544      0.01839451021747
| 39> H           4.72362917020845      2.48089047963546     -0.87882697554764
| 40> H           4.71362444681400      2.48052031071610      0.91057955441826
| 41> H           6.24845927057729      2.28645848294775      0.02468300648574
| 42> C           6.21890311032700     -0.24765571266402      0.01987377959494
| 43> H           7.11746405207368      0.38638280457377      0.02575541170059
| 44> H           6.26272829635460     -0.90187803580692      0.91268866293187
| 45> H           6.27030724212294     -0.89602611228501     -0.87693708029874
| 46> H           4.49368813972706     -2.05282067647445      0.01344982462292
| 47> H           2.23685254993858     -3.03447155031151      0.00547512817034
| 48> H          -4.49372906017109     -2.05303540820711     -0.01582821380380
| 49> N          -5.04773346330895      0.58755010330840     -0.01787016769593
| 50> C          -6.21904670194275     -0.24792774805618     -0.02103570915344
| 51> H          -6.26948350136630     -0.89843815146211      0.87422819476414
| 52> H          -6.26381702737160     -0.90001046584191     -0.91541895496807
| 53> H          -7.11762903933965      0.38609970182385     -0.02430714598305
| 54> C          -5.18193217827922      2.01902912759794     -0.01996728409317
| 55> H          -4.72352139465997      2.48160383072144      0.87657566790498
| 56> H          -4.71418178558910      2.47935235497991     -0.91283316827598
| 57> H          -6.24867837130277      2.28618639267493     -0.02606269937327
| 58> H          -2.70315182110753      1.89814199356804     -0.00903802299134
| 59> *
| 60>
| 61>                          ****END OF INPUT****

CARTESIAN COORDINATES (ANGSTROEM)
---------------------------------
  S     -0.000110    1.332322    0.000003
  C     -1.363676    0.234649   -0.005071
  C     -2.631112    0.809187   -0.009315
  C     -3.797496    0.017489   -0.013531
  C     -3.626907   -1.391081   -0.012960
  C     -2.367112   -1.949348   -0.008743
  H     -2.236850   -3.034590   -0.008381
  C     -1.178210   -1.176687   -0.004723
  N     -0.000022   -1.834465   -0.000981
  C      1.178128   -1.176622    0.003213
  C      2.367067   -1.949225    0.006678
  C      3.626837   -1.390901    0.011261
  C      3.797351    0.017676    0.012932
  C      2.630929    0.809317    0.009086
  C      1.363520    0.234724    0.004450
  H      2.702928    1.898269    0.009523
  N      5.047564    0.587789    0.017889
  C      5.181721    2.019273    0.018395
  H      4.723629    2.480890   -0.878827
  H      4.713624    2.480520    0.910580
  H      6.248459    2.286458    0.024683
  C      6.218903   -0.247656    0.019874
  H      7.117464    0.386383    0.025755
  H      6.262728   -0.901878    0.912689
  H      6.270307   -0.896026   -0.876937
  H      4.493688   -2.052821    0.013450
  H      2.236853   -3.034472    0.005475
  H     -4.493729   -2.053035   -0.015828
  N     -5.047733    0.587550   -0.017870
  C     -6.219047   -0.247928   -0.021036
  H     -6.269484   -0.898438    0.874228
  H     -6.263817   -0.900010   -0.915419
  H     -7.117629    0.386100   -0.024307
  C     -5.181932    2.019029   -0.019967
  H     -4.723521    2.481604    0.876576
  H     -4.714182    2.479352   -0.912833
  H     -6.248678    2.286186   -0.026063
  H     -2.703152    1.898142   -0.009038

 Total Charge           Charge          ....    0
 Multiplicity           Mult            ....    2
 Number of Electrons    NEL             ....  151
 Basis Dimension        Dim             .... 1338

ORBITAL ENERGIES
----------------
                 SPIN UP ORBITALS
  NO   OCC          E(Eh)            E(eV)
   0   1.0000     -88.909578     -2419.3526
   1   1.0000     -14.341313      -390.2470
   2   1.0000     -14.341305      -390.2468
   3   1.0000     -14.302231      -389.1835
   4   1.0000     -10.219577      -278.0888
   5   1.0000     -10.219564      -278.0885
   6   1.0000     -10.214256      -277.9440
   7   1.0000     -10.214243      -277.9437
   8   1.0000     -10.204680      -277.6835
   9   1.0000     -10.204673      -277.6833
  10   1.0000     -10.193655      -277.3834
  11   1.0000     -10.193624      -277.3826
  12   1.0000     -10.193579      -277.3814
  13   1.0000     -10.193571      -277.3812
  14   1.0000     -10.173924      -276.8465
  15   1.0000     -10.173912      -276.8462
  16   1.0000     -10.173608      -276.8379
  17   1.0000     -10.173568      -276.8369
  18   1.0000     -10.171272      -276.7744
  19   1.0000     -10.171254      -276.7739
  20   1.0000      -7.961914      -216.6547
  21   1.0000      -5.925675      -161.2458
  22   1.0000      -5.922084      -161.1481
  23   1.0000      -5.919331      -161.0732
  24   1.0000      -0.957147       -26.0453
  25   1.0000      -0.956557       -26.0292
  26   1.0000      -0.937931       -25.5224
  27   1.0000      -0.853418       -23.2227
  28   1.0000      -0.844765       -22.9872
  29   1.0000      -0.804581       -21.8938
  30   1.0000      -0.759019       -20.6540
  31   1.0000      -0.753775       -20.5113
  32   1.0000      -0.734222       -19.9792
  33   1.0000      -0.717038       -19.5116
  34   1.0000      -0.716382       -19.4937
  35   1.0000      -0.684143       -18.6165
  36   1.0000      -0.666543       -18.1376
  37   1.0000      -0.632552       -17.2126
  38   1.0000      -0.604343       -16.4450
  39   1.0000      -0.604192       -16.4409
  40   1.0000      -0.584139       -15.8952
  41   1.0000      -0.542057       -14.7501
  42   1.0000      -0.540382       -14.7045
  43   1.0000      -0.510595       -13.8940
  44   1.0000      -0.501920       -13.6579
  45   1.0000      -0.499150       -13.5826
  46   1.0000      -0.475452       -12.9377
  47   1.0000      -0.463995       -12.6259
  48   1.0000      -0.463498       -12.6124
  49   1.0000      -0.446771       -12.1572
  50   1.0000      -0.439233       -11.9521
  51   1.0000      -0.433795       -11.8042
  52   1.0000      -0.425255       -11.5718
  53   1.0000      -0.424583       -11.5535
  54   1.0000      -0.416749       -11.3403
  55   1.0000      -0.414566       -11.2809
  56   1.0000      -0.396050       -10.7771
  57   1.0000      -0.396039       -10.7768
  58   1.0000      -0.392300       -10.6750
  59   1.0000      -0.392019       -10.6674
  60   1.0000      -0.380512       -10.3542
  61   1.0000      -0.377496       -10.2722
  62   1.0000      -0.374886       -10.2012
  63   1.0000      -0.368636       -10.0311
  64   1.0000      -0.361346        -9.8327
  65   1.0000      -0.344300        -9.3689
  66   1.0000      -0.338290        -9.2053
  67   1.0000      -0.334162        -9.0930
  68   1.0000      -0.329556        -8.9677
  69   1.0000      -0.295633        -8.0446
  70   1.0000      -0.269223        -7.3259
  71   1.0000      -0.262732        -7.1493
  72   1.0000      -0.252913        -6.8821
  73   1.0000      -0.214804        -5.8451
  74   1.0000      -0.199680        -5.4336
  75   1.0000      -0.148430        -4.0390
  76   0.0000      -0.023994        -0.6529
  77   0.0000      -0.021387        -0.5820
  78   0.0000      -0.006992        -0.1903
  79   0.0000      -0.004009        -0.1091
  80   0.0000      -0.003155        -0.0858

                 SPIN DOWN ORBITALS
  NO   OCC          E(Eh)            E(eV)
   0   1.0000     -88.908972     -2419.3361
   1   1.0000     -14.339465      -390.1967
   2   1.0000     -14.339456      -390.1964
   3   1.0000     -14.294042      -388.9607
   4   1.0000     -10.218194      -278.0512
   5   1.0000     -10.218181      -278.0508
   6   1.0000     -10.212269      -277.8900
   7   1.0000     -10.212255      -277.8896
   8   1.0000     -10.205612      -277.7088
   9   1.0000     -10.205605      -277.7086
  10   1.0000     -10.193765      -277.3865
  11   1.0000     -10.193735      -277.3856
  12   1.0000     -10.193688      -277.3844
  13   1.0000     -10.193680      -277.3841
  14   1.0000     -10.174447      -276.8608
  15   1.0000     -10.174407      -276.8597
  16   1.0000     -10.172510      -276.8081
  17   1.0000     -10.172499      -276.8078
  18   1.0000     -10.171456      -276.7794
  19   1.0000     -10.171440      -276.7789
  20   1.0000      -7.961311      -216.6383
  21   1.0000      -5.925371      -161.2375
  22   1.0000      -5.921812      -161.1407
  23   1.0000      -5.917208      -161.0154
  24   1.0000      -0.953897       -25.9568
  25   1.0000      -0.953431       -25.9442
  26   1.0000      -0.928587       -25.2681
  27   1.0000      -0.850912       -23.1545
  28   1.0000      -0.838965       -22.8294
  29   1.0000      -0.802150       -21.8276
  30   1.0000      -0.757828       -20.6216
  31   1.0000      -0.751279       -20.4433
  32   1.0000      -0.732841       -19.9416
  33   1.0000      -0.716338       -19.4925
  34   1.0000      -0.714145       -19.4329
  35   1.0000      -0.682636       -18.5755
  36   1.0000      -0.666292       -18.1307
  37   1.0000      -0.629113       -17.1190
  38   1.0000      -0.602631       -16.3984
  39   1.0000      -0.601727       -16.3738
  40   1.0000      -0.582230       -15.8433
  41   1.0000      -0.540156       -14.6984
  42   1.0000      -0.538993       -14.6667
  43   1.0000      -0.509141       -13.8544
  44   1.0000      -0.500015       -13.6061
  45   1.0000      -0.498333       -13.5603
  46   1.0000      -0.474571       -12.9137
  47   1.0000      -0.459822       -12.5124
  48   1.0000      -0.459449       -12.5022
  49   1.0000      -0.445931       -12.1344
  50   1.0000      -0.438119       -11.9218
  51   1.0000      -0.432903       -11.7799
  52   1.0000      -0.424583       -11.5535
  53   1.0000      -0.416115       -11.3231
  54   1.0000      -0.413685       -11.2569
  55   1.0000      -0.412202       -11.2166
  56   1.0000      -0.395477       -10.7615
  57   1.0000      -0.395461       -10.7610
  58   1.0000      -0.391849       -10.6628
  59   1.0000      -0.391266       -10.6469
  60   1.0000      -0.379492       -10.3265
  61   1.0000      -0.373812       -10.1719
  62   1.0000      -0.371744       -10.1157
  63   1.0000      -0.368075       -10.0158
  64   1.0000      -0.360552        -9.8111
  65   1.0000      -0.335520        -9.1300
  66   1.0000      -0.333482        -9.0745
  67   1.0000      -0.329003        -8.9526
  68   1.0000      -0.320169        -8.7122
  69   1.0000      -0.286785        -7.8038
  70   1.0000      -0.264539        -7.1985
  71   1.0000      -0.254763        -6.9324
  72   1.0000      -0.238232        -6.4826
  73   1.0000      -0.208115        -5.6631
  74   1.0000      -0.190558        -5.1853
  75   0.0000      -0.090176        -2.4538
  76   0.0000      -0.018457        -0.5022
  77   0.0000      -0.013688        -0.3725
  78   0.0000      -0.006937        -0.1888
  79   0.0000      -0.003078        -0.0837

MULLIKEN ATOMIC CHARGES AND SPIN POPULATIONS
--------------------------------------------
   0 S :    0.091128    0.121411
   1 C :    0.895618    0.125333
   2 C :   -1.077285   -0.067771
   3 C :    1.234824    0.101948
   4 C :    0.134171   -0.031229
   5 C :   -0.964921    0.078693
   6 H :    0.211741   -0.003451
   7 C :    0.516661   -0.024407
   8 N :   -1.143742    0.348748
   9 C :    0.432047   -0.025455
  10 C :   -0.976539    0.079065
  11 C :    0.207279   -0.031723
  12 C :    1.289018    0.101742
  13 C :   -1.195964   -0.067417
  14 C :    0.883922    0.125193
  15 H :   -0.089849    0.006045
  16 N :   -0.174450    0.074961
  17 C :   -0.992253   -0.010272
  18 H :    0.272101    0.004778
  19 H :    0.272115    0.004822
  20 H :    0.289413    0.000833
  21 C :   -0.954846   -0.009784
  22 H :    0.307983    0.001130
  23 H :    0.232225    0.004400
  24 H :    0.235595    0.004460
  25 H :    0.218531    0.004989
  26 H :    0.217226   -0.003344
  27 H :    0.206343    0.004895
  28 N :   -0.174401    0.075018
  29 C :   -0.936920   -0.009764
  30 H :    0.231631    0.004490
  31 H :    0.232775    0.004380
  32 H :    0.315523    0.001128
  33 C :   -0.989473   -0.010250
  34 H :    0.271886    0.004775
  35 H :    0.268951    0.004769
  36 H :    0.289653    0.000849
  37 H :   -0.087717    0.006012
Sum of atomic charges         :    0.0000000

LOEWDIN ATOMIC CHARGES AND SPIN POPULATIONS
-------------------------------------------
   0 S :    1.321745    0.102088
   1 C :   -0.484315    0.065243
   2 C :    0.128623    0.002497
   3 C :   -0.222824    0.047950
   4 C :    0.214612    0.020304
   5 C :    0.184028    0.045920
   6 H :   -0.174095    0.006951
   7 C :   -0.395125    0.054971
   8 N :    0.356525    0.245020
   9 C :   -0.395152    0.054960
  10 C :    0.184021    0.045908
  11 C :    0.214643    0.020289
  12 C :   -0.222798    0.047938
  13 C :    0.128537    0.002498
  14 C :   -0.484375    0.065247
  15 H :   -0.211604   -0.004462
  16 N :    0.239072    0.060790
  17 C :    0.472891    0.008957
  18 H :   -0.138597    0.002348
  19 H :   -0.138879    0.002333
  20 H :   -0.158372    0.000077
  21 C :    0.472964    0.008681
  22 H :   -0.159026    0.000046
  23 H :   -0.139538    0.002284
  24 H :   -0.139093    0.002297
  25 H :   -0.189861   -0.000732
  26 H :   -0.174087    0.006949
  27 H :   -0.189867   -0.000731
  28 N :    0.239083    0.060811
  29 C :    0.472971    0.008684
  30 H :   -0.139254    0.002290
  31 H :   -0.139366    0.002292
  32 H :   -0.159043    0.000045
  33 C :    0.472903    0.008960
  34 H :   -0.138678    0.002344
  35 H :   -0.138816    0.002338
  36 H :   -0.158345    0.000077
  37 H :   -0.211513   -0.004462

  Mayer bond orders larger than 0.100000
B(  0-S ,  1-C ) :   0.2036 B(  0-S ,  2-C ) :   0.2117 B(  0-S ,  5-C ) :  -0.1029
B(  0-S ,  7-C ) :   0.2287 B(  0-S ,  8-N ) :  -0.1472 B(  0-S ,  9-C ) :   0.2257
B(  0-S , 13-C ) :   0.2108 B(  0-S , 14-C ) :   0.2494 B(  1-C ,  2-C ) :   0.1679
B(  1-C ,  3-C ) :  -0.1396 B(  1-C ,  4-C ) :  -0.3685 B(  1-C ,  7-C ) :   0.7377
B(  1-C ,  8-N ) :  -0.1277 B(  1-C , 13-C ) :   0.2105 B(  1-C , 14-C ) :  -0.4949
B(  1-C , 15-H ) :  -0.1016 B(  1-C , 28-N ) :   0.3612 B(  1-C , 33-C ) :   0.1655
B(  2-C ,  3-C ) :   0.4242 B(  2-C ,  4-C ) :  -0.1050 B(  2-C ,  7-C ) :   0.5678
B(  2-C ,  9-C ) :  -0.2709 B(  2-C , 10-C ) :   0.1604 B(  2-C , 11-C ) :  -0.1323
B(  2-C , 14-C ) :   0.2232 B(  2-C , 16-N ) :   0.1453 B(  2-C , 25-H ) :  -0.3418
B(  2-C , 26-H ) :   0.1469 B(  2-C , 28-N ) :  -0.5537 B(  2-C , 29-C ) :   0.1770
B(  2-C , 33-C ) :  -0.2703 B(  2-C , 37-H ) :   1.4931 B(  3-C ,  4-C ) :   0.6102
B(  3-C ,  5-C ) :  -0.2630 B(  3-C ,  7-C ) :   0.1592 B(  3-C ,  9-C ) :  -0.1548
B(  3-C , 10-C ) :   0.1502 B(  3-C , 25-H ) :   0.1011 B(  3-C , 26-H ) :   0.1097
B(  3-C , 27-H ) :  -0.1081 B(  3-C , 29-C ) :  -0.1463 B(  3-C , 33-C ) :  -0.2241
B(  3-C , 37-H ) :  -0.1508 B(  4-C ,  5-C ) :   0.7986 B(  4-C ,  7-C ) :   0.5026
B(  4-C ,  8-N ) :   0.1563 B(  4-C , 11-C ) :   0.1618 B(  4-C , 13-C ) :  -0.1065
B(  4-C , 25-H ) :   0.2324 B(  4-C , 26-H ) :  -0.1407 B(  4-C , 27-H ) :   0.9983
B(  4-C , 28-N ) :  -0.5294 B(  4-C , 29-C ) :  -0.2024 B(  5-C ,  6-H ) :   0.9430
B(  5-C ,  7-C ) :  -0.4409 B(  5-C ,  8-N ) :   0.4610 B(  5-C ,  9-C ) :   0.3623
B(  5-C , 12-C ) :   0.1590 B(  5-C , 28-N ) :   0.1133 B(  6-H ,  8-N ) :   0.1468
B(  6-H ,  9-C ) :  -0.1956 B(  6-H , 11-C ) :  -0.1543 B(  6-H , 12-C ) :   0.1395
B(  6-H , 13-C ) :   0.1477 B(  6-H , 14-C ) :   0.1061 B(  7-C ,  9-C ) :   1.0337
B(  7-C , 10-C ) :   0.3990 B(  7-C , 12-C ) :  -0.2257 B(  7-C , 13-C ) :  -0.2524
B(  7-C , 14-C ) :  -0.1186 B(  7-C , 26-H ) :  -0.1915 B(  7-C , 27-H ) :   0.1059
B(  7-C , 28-N ) :  -0.1909 B(  8-N , 10-C ) :   0.4100 B(  8-N , 11-C ) :   0.1626
B(  8-N , 14-C ) :  -0.1180 B(  8-N , 26-H ) :   0.1654 B(  9-C , 10-C ) :  -0.4522
B(  9-C , 11-C ) :   0.4919 B(  9-C , 12-C ) :   0.1536 B(  9-C , 13-C ) :   0.5948
B(  9-C , 14-C ) :   0.6969 B(  9-C , 16-N ) :  -0.1768 B(  9-C , 25-H ) :   0.1165
B(  9-C , 28-N ) :   0.1023 B( 10-C , 11-C ) :   0.8006 B( 10-C , 12-C ) :  -0.2887
B( 10-C , 16-N ) :   0.1026 B( 10-C , 26-H ) :   0.9467 B( 10-C , 27-H ) :  -0.1078
B( 10-C , 28-N ) :  -0.1365 B( 11-C , 12-C ) :   0.6780 B( 11-C , 13-C ) :  -0.1281
B( 11-C , 14-C ) :  -0.3710 B( 11-C , 16-N ) :  -0.6591 B( 11-C , 21-C ) :  -0.2423
B( 11-C , 25-H ) :   0.9975 B( 11-C , 27-H ) :   0.2271 B( 11-C , 28-N ) :  -0.1100
B( 12-C , 13-C ) :   0.3816 B( 12-C , 14-C ) :  -0.1367 B( 12-C , 15-H ) :  -0.1483
B( 12-C , 17-C ) :  -0.2814 B( 12-C , 21-C ) :  -0.1229 B( 12-C , 25-H ) :  -0.1189
B( 13-C , 14-C ) :   0.1864 B( 13-C , 15-H ) :   1.4826 B( 13-C , 16-N ) :  -0.4278
B( 13-C , 17-C ) :  -0.2239 B( 13-C , 21-C ) :   0.1819 B( 13-C , 27-H ) :  -0.2377
B( 13-C , 28-N ) :   0.1884 B( 14-C , 16-N ) :   0.3517 B( 14-C , 17-C ) :   0.1618
B( 14-C , 27-H ) :  -0.1225 B( 14-C , 28-N ) :   0.1076 B( 14-C , 37-H ) :  -0.1297
B( 16-N , 17-C ) :   1.2399 B( 16-N , 21-C ) :   1.2272 B( 17-C , 18-H ) :   0.9529
B( 17-C , 19-H ) :   0.9530 B( 17-C , 20-H ) :   0.9115 B( 21-C , 22-H ) :   0.8499
B( 21-C , 23-H ) :   1.0116 B( 21-C , 24-H ) :   1.0086 B( 21-C , 25-H ) :  -0.1605
B( 25-H , 27-H ) :   0.1926 B( 27-H , 29-C ) :  -0.1584 B( 28-N , 29-C ) :   1.2215
B( 28-N , 33-C ) :   1.2310 B( 29-C , 30-H ) :   1.0123 B( 29-C , 31-H ) :   1.0123
B( 29-C , 32-H ) :   0.8372 B( 33-C , 34-H ) :   0.9538 B( 33-C , 35-H ) :   0.9552
B( 33-C , 36-H ) :   0.9118 B( 33-C , 37-H ) :  -0.1034

Dispersion correction           -0.085651295
FINAL SINGLE POINT ENERGY     -1182.818951001075

DIPOLE MOMENT
-------------

Method             : SCF
Type of density    : Electron Density
Multiplicity       :   2
Irrep              :   0
Energy             : -1182.7332997060827893 Eh
Relativity type    :
Basis              : AO
                                X                 Y                 Z
Electronic contribution:     -0.000817943      -3.188835200       0.004973156
Nuclear contribution   :     -0.000087217       5.020383448      -0.005360537
                        -----------------------------------------
Total Dipole Moment    :     -0.000905160       1.831548248      -0.000387381
                        -----------------------------------------
Magnitude (a.u.)       :      1.831548512
Magnitude (Debye)      :      4.655426345

Rotational constants in cm-1:             0.035055             0.004401             0.003922
Rotational constants in MHz :          1050.925207           131.948316           117.581806

                             ****ORCA TERMINATED NORMALLY****
TOTAL RUN TIME: 0 days 0 hours 32 minutes 30 seconds 925 msec
