                         Program Version 6.0.0  -   RELEASE  -
|  1> !PBE0 def2-SV(p) Opt Freq d3 TightSCF SlowConv RIJCOSX defgrid2
|  2>
|  3> %pal
|  4> nprocs 4
|  5> end
|  6>
|  7> %scf
|  8> MaxIter 1500
|  9> end
| 10>
| 11> %maxcore 3000
| 12>
| 13>
| 14>
| 15> * xyz 0 1
| 16> C    -1.6328908    1.1629895   -0.3268286
| 17> C    -2.3551588    0.0104312   -0.0045148
| 18> C    -1.6473940   -1.1486164    0.3203465
| 19> C    -0.2676157   -1.1487241    0.3168862
| 20> C     0.4522682    0.0034786   -0.0018176
| 21> C    -0.2550341    1.1627265   -0.3226855
| 22> H     0.2830224    2.0602050   -0.5890738
| 23> C     1.9219600   -0.0040137    0.0008562
| 24> C     2.6278536   -1.0834918   -0.5275617
| 25> C     4.0106319   -1.0857287   -0.5294956
| 26> C     4.7101258   -0.0160817    0.0052000
| 27> C     4.0182381    1.0596139    0.5377622
| 28> C     2.6355271    1.0692957    0.5315212
| 29> H     2.1009142    1.9036374    0.9613746
| 30> H     4.5585982    1.8942827    0.9597234
| 31> H     5.7899460   -0.0204935    0.0067260
| 32> H     4.5452353   -1.9247442   -0.9501224
| 33> H     2.0878347   -1.9127895   -0.9601805
| 34> H     0.2659271   -2.0486956    0.5842768
| 35> H    -2.1692286   -2.0560809    0.5784646
| 36> C    -3.8335666    0.0814553   -0.0263759
| 37> O    -4.4166421    1.1090430   -0.3275238
| 38> C    -4.5936955   -1.1687332    0.3404198
| 39> H    -5.6608441   -0.9686025    0.2846728
| 40> H    -4.3411926   -1.9728568   -0.3468523
| 41> H    -4.3366345   -1.4778780    1.3509193
| 42> H    -2.1841707    2.0565807   -0.5815310
| 43> *
| 44>
| 45>                          ****END OF INPUT****
 Total Charge           Charge          ....    0
 Multiplicity           Mult            ....    1
 Number of Electrons    NEL             ....  104
Dispersion correction           -0.029121312
FINAL SINGLE POINT ENERGY      -614.788477028507
Dispersion correction             ... done (  0.1 sec)
Dispersion correction           -0.028944286
FINAL SINGLE POINT ENERGY      -614.791441476209
Dispersion correction             ... done (  0.1 sec)
Dispersion correction           -0.028920803
FINAL SINGLE POINT ENERGY      -614.791545530763
Dispersion correction             ... done (  0.1 sec)
FINAL SINGLE POINT ENERGY      -614.791572257601
Dispersion correction             ... done (  0.0 sec)
Dispersion correction           -0.028915778
FINAL SINGLE POINT ENERGY      -614.791568119397
Dispersion correction             ... done (  0.0 sec)
Dispersion correction           -0.028917310
FINAL SINGLE POINT ENERGY      -614.791576691184
Dispersion correction             ... done (  0.1 sec)
                    ***********************HURRAY********************

CARTESIAN COORDINATES (ANGSTROEM)
---------------------------------
  C     -1.648241    1.179629   -0.276409
  C     -2.367321    0.012227    0.010137
  C     -1.656814   -1.160618    0.292086
  C     -0.266263   -1.164436    0.287918
  C      0.458547    0.002175    0.002563
  C     -0.261280    1.175493   -0.279844
  H      0.280896    2.091379   -0.531132
  C      1.936961   -0.002800    0.000516
  C      2.653038   -1.109790   -0.479259
  C      4.045314   -1.113983   -0.481676
  C      4.751021   -0.011296   -0.001161
  C      4.052484    1.095722    0.479846
  C      2.660206    1.100146    0.478885
  H      2.121821    1.963398    0.880358
  H      4.596860    1.962285    0.866768
  H      5.844934   -0.014513   -0.001900
  H      4.584103   -1.983469   -0.869913
  H      2.108989   -1.969254   -0.881352
  H      0.270063   -2.084187    0.536938
  H     -2.187478   -2.086648    0.528307
  C     -3.861226    0.083105   -0.000753
  O     -4.427286    1.124115   -0.253893
  C     -4.642253   -1.172343    0.311431
  H     -5.716146   -0.940731    0.262161
  H     -4.407773   -1.974325   -0.410301
  H     -4.395712   -1.552183    1.318353
  H     -2.213431    2.087111   -0.504090

 Multiplicity           Mult            ....    1
 Number of Electrons    NEL             ....  104
 Basis Dimension        Dim             ....  234

ORBITAL ENERGIES
----------------

  NO   OCC          E(Eh)            E(eV)
   0   2.0000     -19.196926      -522.3749
   1   2.0000     -10.321697      -280.8676
   2   2.0000     -10.262904      -279.2678
   3   2.0000     -10.257214      -279.1130
   4   2.0000     -10.253521      -279.0125
   5   2.0000     -10.249178      -278.8943
   6   2.0000     -10.248446      -278.8744
   7   2.0000     -10.246367      -278.8178
   8   2.0000     -10.245919      -278.8056
   9   2.0000     -10.245663      -278.7987
  10   2.0000     -10.245357      -278.7903
  11   2.0000     -10.245186      -278.7857
  12   2.0000     -10.245089      -278.7830
  13   2.0000     -10.244704      -278.7726
  14   2.0000     -10.232342      -278.4362
  15   2.0000      -1.059657       -28.8347
  16   2.0000      -0.901530       -24.5319
  17   2.0000      -0.878784       -23.9129
  18   2.0000      -0.813662       -22.1409
  19   2.0000      -0.779388       -21.2082
  20   2.0000      -0.771012       -20.9803
  21   2.0000      -0.765941       -20.8423
  22   2.0000      -0.740641       -20.1539
  23   2.0000      -0.661989       -18.0136
  24   2.0000      -0.644468       -17.5369
  25   2.0000      -0.615142       -16.7389
  26   2.0000      -0.609148       -16.5757
  27   2.0000      -0.573807       -15.6141
  28   2.0000      -0.550995       -14.9933
  29   2.0000      -0.512560       -13.9475
  30   2.0000      -0.498820       -13.5736
  31   2.0000      -0.485721       -13.2171
  32   2.0000      -0.469265       -12.7694
  33   2.0000      -0.464131       -12.6297
  34   2.0000      -0.462194       -12.5769
  35   2.0000      -0.458267       -12.4701
  36   2.0000      -0.448919       -12.2157
  37   2.0000      -0.440627       -11.9901
  38   2.0000      -0.434998       -11.8369
  39   2.0000      -0.414053       -11.2669
  40   2.0000      -0.406123       -11.0512
  41   2.0000      -0.391703       -10.6588
  42   2.0000      -0.390326       -10.6213
  43   2.0000      -0.373809       -10.1719
  44   2.0000      -0.369963       -10.0672
  45   2.0000      -0.364555        -9.9200
  46   2.0000      -0.355718        -9.6796
  47   2.0000      -0.300547        -8.1783
  48   2.0000      -0.279582        -7.6078
  49   2.0000      -0.276154        -7.5145
  50   2.0000      -0.265763        -7.2318
  51   2.0000      -0.250613        -6.8195
  52   0.0000      -0.064790        -1.7630
  53   0.0000      -0.016984        -0.4622
  54   0.0000      -0.011176        -0.3041
  55   0.0000      -0.008296        -0.2257
  56   0.0000       0.049290         1.3413

MULLIKEN ATOMIC CHARGES
-----------------------
   0 C :   -0.112887
   1 C :    0.009480
   2 C :   -0.134317
   3 C :   -0.127558
   4 C :    0.087014
   5 C :   -0.127843
   6 H :    0.099063
   7 C :    0.067803
   8 C :   -0.134467
   9 C :   -0.091053
  10 C :   -0.088261
  11 C :   -0.090824
  12 C :   -0.135120
  13 H :    0.097836
  14 H :    0.100051
  15 H :    0.101285
  16 H :    0.099438
  17 H :    0.095726
  18 H :    0.094777
  19 H :    0.093470
  20 C :    0.083324
  21 O :   -0.215021
  22 C :   -0.340320
  23 H :    0.150849
  24 H :    0.151867
  25 H :    0.152025
  26 H :    0.113663
Sum of atomic charges:   -0.0000000

LOEWDIN ATOMIC CHARGES
----------------------
   0 C :   -0.084232
   1 C :   -0.090287
   2 C :   -0.107546
   3 C :   -0.119634
   4 C :   -0.014551
   5 C :   -0.116883
   6 H :    0.133348
   7 C :   -0.033990
   8 C :   -0.116665
   9 C :   -0.124056
  10 C :   -0.125141
  11 C :   -0.123625
  12 C :   -0.115831
  13 H :    0.131979
  14 H :    0.131535
  15 H :    0.131037
  16 H :    0.131221
  17 H :    0.130944
  18 H :    0.132307
  19 H :    0.131334
  20 C :    0.069132
  21 O :   -0.152648
  22 C :   -0.368783
  23 H :    0.141828
  24 H :    0.143100
  25 H :    0.143086
  26 H :    0.143023

  Mayer bond orders larger than 0.100000
B(  0-C ,  1-C ) :   1.3787 B(  0-C ,  5-C ) :   1.3826 B(  0-C , 26-H ) :   0.9535
B(  1-C ,  2-C ) :   1.3641 B(  1-C , 20-C ) :   0.9310 B(  2-C ,  3-C ) :   1.3950
B(  2-C , 19-H ) :   0.9479 B(  3-C ,  4-C ) :   1.3798 B(  3-C , 18-H ) :   0.9542
B(  4-C ,  5-C ) :   1.3594 B(  4-C ,  7-C ) :   1.0066 B(  5-C ,  6-H ) :   0.9580
B(  7-C ,  8-C ) :   1.3865 B(  7-C , 12-C ) :   1.3866 B(  8-C ,  9-C ) :   1.3975
B(  8-C , 17-H ) :   0.9536 B(  9-C , 10-C ) :   1.3897 B(  9-C , 16-H ) :   0.9617
B( 10-C , 11-C ) :   1.3897 B( 10-C , 15-H ) :   0.9637 B( 11-C , 12-C ) :   1.3976
B( 11-C , 14-H ) :   0.9617 B( 12-C , 13-H ) :   0.9536 B( 20-C , 21-O ) :   2.1357
B( 20-C , 22-C ) :   1.0984 B( 22-C , 23-H ) :   0.9355 B( 22-C , 24-H ) :   0.9227
B( 22-C , 25-H ) :   0.9228

Dispersion correction           -0.028917321
FINAL SINGLE POINT ENERGY      -614.791576907336

DIPOLE MOMENT
-------------

Method             : SCF
Type of density    : Electron Density
Multiplicity       :   1
Irrep              :   0
Energy             :  -614.7626595866328216 Eh
Relativity type    :
Basis              : AO
                                X                 Y                 Z
Electronic contribution:      0.175017814       3.377701525      -0.833238165
Nuclear contribution   :      0.745176245      -4.228888147       1.043265209
                        -----------------------------------------
Total Dipole Moment    :      0.920194059      -0.851186623       0.210027044
                        -----------------------------------------
Magnitude (a.u.)       :      1.270978809
Magnitude (Debye)      :      3.230571394

VIBRATIONAL FREQUENCIES
-----------------------

Scaling factor for frequencies =  1.000000000  (already applied!)

     0:       0.00 cm**-1
     1:       0.00 cm**-1
     2:       0.00 cm**-1
     3:       0.00 cm**-1
     4:       0.00 cm**-1
     5:       0.00 cm**-1
     6:      49.30 cm**-1
     7:      53.20 cm**-1
     8:      83.51 cm**-1
     9:      93.28 cm**-1
    10:     160.26 cm**-1
    11:     173.60 cm**-1
    12:     210.58 cm**-1
    13:     250.14 cm**-1
    14:     300.91 cm**-1
    15:     381.71 cm**-1
    16:     417.41 cm**-1
    17:     420.39 cm**-1
    18:     425.80 cm**-1
    19:     485.84 cm**-1
    20:     512.21 cm**-1
    21:     554.36 cm**-1
    22:     608.30 cm**-1
    23:     615.25 cm**-1
    24:     629.12 cm**-1
    25:     649.21 cm**-1
    26:     697.11 cm**-1
    27:     722.34 cm**-1
    28:     764.07 cm**-1
    29:     797.10 cm**-1
    30:     800.67 cm**-1
    31:     860.44 cm**-1
    32:     865.94 cm**-1
    33:     879.38 cm**-1
    34:     949.49 cm**-1
    35:     972.76 cm**-1
    36:     995.17 cm**-1
    37:    1000.50 cm**-1
    38:    1015.34 cm**-1
    39:    1020.50 cm**-1
    40:    1024.65 cm**-1
    41:    1027.78 cm**-1
    42:    1052.37 cm**-1
    43:    1053.45 cm**-1
    44:    1074.72 cm**-1
    45:    1108.03 cm**-1
    46:    1113.06 cm**-1
    47:    1136.54 cm**-1
    48:    1174.13 cm**-1
    49:    1195.74 cm**-1
    50:    1205.22 cm**-1
    51:    1307.02 cm**-1
    52:    1316.78 cm**-1
    53:    1332.81 cm**-1
    54:    1337.41 cm**-1
    55:    1381.59 cm**-1
    56:    1394.98 cm**-1
    57:    1402.08 cm**-1
    58:    1452.36 cm**-1
    59:    1461.36 cm**-1
    60:    1462.67 cm**-1
    61:    1497.75 cm**-1
    62:    1536.71 cm**-1
    63:    1575.00 cm**-1
    64:    1644.06 cm**-1
    65:    1671.07 cm**-1
    66:    1695.37 cm**-1
    67:    1698.82 cm**-1
    68:    1835.93 cm**-1
    69:    3045.32 cm**-1
    70:    3133.14 cm**-1
    71:    3178.51 cm**-1
    72:    3193.67 cm**-1
    73:    3199.78 cm**-1
    74:    3204.00 cm**-1
    75:    3206.40 cm**-1
    76:    3209.33 cm**-1
    77:    3215.14 cm**-1
    78:    3221.49 cm**-1
    79:    3223.12 cm**-1
    80:    3228.17 cm**-1

IR SPECTRUM
-----------

 Mode   freq       eps      Int      T**2         TX        TY        TZ
       cm**-1   L/(mol*cm) km/mol    a.u.
----------------------------------------------------------------------------
  6:     49.30   0.000333    1.68  0.002108  ( 0.003229 -0.009284 -0.044845)
  7:     53.20   0.000124    0.63  0.000730  (-0.003294  0.008693  0.025374)
  8:     83.51   0.000198    1.00  0.000739  (-0.004504 -0.006496 -0.026011)
  9:     93.28   0.000144    0.73  0.000482  (-0.019731 -0.004551 -0.008459)
 10:    160.26   0.000247    1.25  0.000480  (-0.010022 -0.002818  0.019283)
 11:    173.60   0.000067    0.34  0.000120  ( 0.000522  0.002939  0.010560)
 12:    210.58   0.000816    4.12  0.001209  ( 0.033907  0.007560 -0.001359)
 13:    250.14   0.000010    0.05  0.000013  (-0.000508 -0.003366  0.001088)
 14:    300.91   0.000122    0.61  0.000126  ( 0.011158 -0.001216  0.000349)
 15:    381.71   0.000144    0.73  0.000118  ( 0.007792 -0.003994 -0.006432)
 16:    417.41   0.000047    0.24  0.000035  ( 0.004320 -0.003399  0.002277)
 17:    420.39   0.000468    2.36  0.000347  ( 0.014207  0.009290 -0.007687)
 18:    425.80   0.000278    1.40  0.000203  (-0.011642 -0.006713  0.004772)
 19:    485.84   0.001544    7.81  0.000992  (-0.026177  0.001167 -0.017476)
 20:    512.21   0.000714    3.61  0.000435  ( 0.013063 -0.001775 -0.016157)
 21:    554.36   0.000511    2.58  0.000288  (-0.000696  0.011610 -0.012347)
 22:    608.30   0.002927   14.79  0.001502  ( 0.035764  0.014757 -0.002168)
 23:    615.25   0.002042   10.32  0.001036  (-0.003834  0.011467  0.029825)
 24:    629.12   0.000106    0.54  0.000053  (-0.001644 -0.003584 -0.006099)
 25:    649.21   0.000053    0.27  0.000025  ( 0.004971  0.000234  0.000685)
 26:    697.11   0.003706   18.73  0.001659  ( 0.040431  0.004704 -0.001450)
 27:    722.34   0.007649   38.66  0.003304  (-0.000199  0.024000 -0.052235)
 28:    764.07   0.003059   15.46  0.001249  ( 0.000714  0.009646 -0.033994)
 29:    797.10   0.005063   25.58  0.001982  ( 0.000415  0.008614 -0.043677)
 30:    800.67   0.000158    0.80  0.000062  (-0.007784  0.000714  0.000788)
 31:    860.44   0.001765    8.92  0.000640  ( 0.000008 -0.009269 -0.023540)
 32:    865.94   0.000066    0.33  0.000024  (-0.004738  0.000582  0.000998)
 33:    879.38   0.003513   17.75  0.001247  (-0.001530 -0.011263 -0.033430)
 34:    949.49   0.000307    1.55  0.000101  ( 0.004750  0.008372 -0.002874)
 35:    972.76   0.006303   31.85  0.002022  (-0.043707 -0.010259  0.002536)
 36:    995.17   0.000041    0.21  0.000013  ( 0.002876 -0.000791  0.001960)
 37:   1000.50   0.000110    0.56  0.000034  (-0.005862  0.000009  0.000035)
 38:   1015.34   0.000677    3.42  0.000208  ( 0.014355  0.000979  0.000966)
 39:   1020.50   0.000311    1.57  0.000095  ( 0.007773 -0.000211 -0.005879)
 40:   1024.65   0.000012    0.06  0.000004  ( 0.000273  0.000927 -0.001650)
 41:   1027.78   0.000793    4.01  0.000241  (-0.015208 -0.003079 -0.000043)
 42:   1052.37   0.000049    0.25  0.000014  ( 0.002511 -0.002572  0.001229)
 43:   1053.45   0.000451    2.28  0.000133  (-0.000596 -0.002993 -0.011143)
 44:   1074.72   0.000712    3.60  0.000207  ( 0.014330  0.001116 -0.000305)
 45:   1108.03   0.000574    2.90  0.000162  ( 0.010697  0.006740 -0.001299)
 46:   1113.06   0.000957    4.83  0.000268  ( 0.000856 -0.015137 -0.006192)
 47:   1136.54   0.002059   10.41  0.000565  ( 0.007916  0.022102 -0.003765)
 48:   1174.13   0.000007    0.04  0.000002  ( 0.000881  0.001041 -0.000312)
 49:   1195.74   0.000832    4.20  0.000217  ( 0.014628  0.001595 -0.000728)
 50:   1205.22   0.004144   20.94  0.001073  (-0.032610 -0.002899  0.001063)
 51:   1307.02   0.042309  213.81  0.010102  (-0.100190 -0.007546  0.002584)
 52:   1316.78   0.000243    1.23  0.000058  (-0.004702 -0.005636 -0.001917)
 53:   1332.81   0.000238    1.20  0.000056  (-0.005133  0.005192  0.001532)
 54:   1337.41   0.002741   13.85  0.000639  ( 0.025276  0.000142  0.000759)
 55:   1381.59   0.013006   65.73  0.002938  ( 0.046302  0.027242 -0.007200)
 56:   1394.98   0.011969   60.49  0.002678  (-0.047350 -0.020209  0.005219)
 57:   1402.08   0.002212   11.18  0.000492  (-0.021743 -0.004345 -0.000800)
 58:   1452.36   0.002026   10.24  0.000435  (-0.014079  0.014965 -0.003621)
 59:   1461.36   0.005651   28.56  0.001207  ( 0.022577  0.026288 -0.002449)
 60:   1462.67   0.002762   13.96  0.000589  ( 0.001480 -0.004201 -0.023863)
 61:   1497.75   0.001138    5.75  0.000237  (-0.009917  0.008565  0.008088)
 62:   1536.71   0.000989    5.00  0.000201  (-0.013741  0.003384 -0.000803)
 63:   1575.00   0.001342    6.78  0.000266  (-0.016028 -0.002910  0.000662)
 64:   1644.06   0.002088   10.55  0.000396  ( 0.019029  0.005624  0.001608)
 65:   1671.07   0.000580    2.93  0.000108  (-0.008029  0.006431  0.001555)
 66:   1695.37   0.000005    0.03  0.000001  (-0.000172 -0.000945  0.000213)
 67:   1698.82   0.019848  100.31  0.003646  (-0.060080  0.005884 -0.001330)
 68:   1835.93   0.043158  218.10  0.007336  (-0.059755  0.059603 -0.014585)
 69:   3045.32   0.000210    1.06  0.000022  (-0.002602  0.003748 -0.000840)
 70:   3133.14   0.000511    2.58  0.000051  (-0.000237  0.001670  0.006932)
 71:   3178.51   0.001248    6.30  0.000122  ( 0.011056  0.000468 -0.000137)
 72:   3193.67   0.000709    3.58  0.000069  ( 0.008322  0.000146 -0.000014)
 73:   3199.78   0.000158    0.80  0.000015  ( 0.001309 -0.003705 -0.000013)
 74:   3204.00   0.001942    9.81  0.000189  ( 0.013538  0.002405  0.000252)
 75:   3206.40   0.000309    1.56  0.000030  (-0.003640 -0.002987  0.002810)
 76:   3209.33   0.000610    3.08  0.000059  (-0.007536  0.000824 -0.001367)
 77:   3215.14   0.002859   14.45  0.000277  ( 0.001449 -0.015103 -0.006876)
 78:   3221.49   0.001641    8.29  0.000159  (-0.006816 -0.010426  0.001940)
 79:   3223.12   0.001779    8.99  0.000172  (-0.012925  0.002213 -0.000522)
 80:   3228.17   0.000445    2.25  0.000043  (-0.006047 -0.002495  0.000483)

--------------------------
THERMOCHEMISTRY AT 298.15K
--------------------------

Temperature         ...   298.15 K
Pressure            ...     1.00 atm
Total Mass          ...   196.25 AMU
Quasi RRHO          ...     True
Cut-Off Frequency   ...     1.00 cm^-1

Throughout the following assumptions are being made:
  (1) The electronic state is orbitally nondegenerate
  (2) There are no thermally accessible electronically excited states
  (3) Hindered rotations indicated by low frequency modes are not
      treated as such but are treated as vibrations and this may
      cause some error
  (4) All equations used are the standard statistical mechanics
      equations for an ideal gas
  (5) All vibrations are strictly harmonic

freq.      49.30  E(vib)   ...       0.52
freq.      53.20  E(vib)   ...       0.52
freq.      83.51  E(vib)   ...       0.48
freq.      93.28  E(vib)   ...       0.47
freq.     160.26  E(vib)   ...       0.39
freq.     173.60  E(vib)   ...       0.38
freq.     210.58  E(vib)   ...       0.34
freq.     250.14  E(vib)   ...       0.31
freq.     300.91  E(vib)   ...       0.26
freq.     381.71  E(vib)   ...       0.21
freq.     417.41  E(vib)   ...       0.18
freq.     420.39  E(vib)   ...       0.18
freq.     425.80  E(vib)   ...       0.18
freq.     485.84  E(vib)   ...       0.15
freq.     512.21  E(vib)   ...       0.14
freq.     554.36  E(vib)   ...       0.12
freq.     608.30  E(vib)   ...       0.10
freq.     615.25  E(vib)   ...       0.10
freq.     629.12  E(vib)   ...       0.09
freq.     649.21  E(vib)   ...       0.08
freq.     697.11  E(vib)   ...       0.07
freq.     722.34  E(vib)   ...       0.07
freq.     764.07  E(vib)   ...       0.06
freq.     797.10  E(vib)   ...       0.05
freq.     800.67  E(vib)   ...       0.05
freq.     860.44  E(vib)   ...       0.04
freq.     865.94  E(vib)   ...       0.04
freq.     879.38  E(vib)   ...       0.04
freq.     949.49  E(vib)   ...       0.03
freq.     972.76  E(vib)   ...       0.03
freq.     995.17  E(vib)   ...       0.02
freq.    1000.50  E(vib)   ...       0.02
freq.    1015.34  E(vib)   ...       0.02
freq.    1020.50  E(vib)   ...       0.02
freq.    1024.65  E(vib)   ...       0.02
freq.    1027.78  E(vib)   ...       0.02
freq.    1052.37  E(vib)   ...       0.02
freq.    1053.45  E(vib)   ...       0.02
freq.    1074.72  E(vib)   ...       0.02
freq.    1108.03  E(vib)   ...       0.02
freq.    1113.06  E(vib)   ...       0.01
freq.    1136.54  E(vib)   ...       0.01
freq.    1174.13  E(vib)   ...       0.01
freq.    1195.74  E(vib)   ...       0.01
freq.    1205.22  E(vib)   ...       0.01
freq.    1307.02  E(vib)   ...       0.01
freq.    1316.78  E(vib)   ...       0.01
freq.    1332.81  E(vib)   ...       0.01
freq.    1337.41  E(vib)   ...       0.01
freq.    1381.59  E(vib)   ...       0.01
freq.    1394.98  E(vib)   ...       0.00
freq.    1402.08  E(vib)   ...       0.00
freq.    1452.36  E(vib)   ...       0.00
freq.    1461.36  E(vib)   ...       0.00
freq.    1462.67  E(vib)   ...       0.00
freq.    1497.75  E(vib)   ...       0.00
freq.    1536.71  E(vib)   ...       0.00
freq.    1575.00  E(vib)   ...       0.00
freq.    1644.06  E(vib)   ...       0.00
freq.    1671.07  E(vib)   ...       0.00
freq.    1695.37  E(vib)   ...       0.00
freq.    1698.82  E(vib)   ...       0.00
freq.    1835.93  E(vib)   ...       0.00
freq.    3045.32  E(vib)   ...       0.00
freq.    3133.14  E(vib)   ...       0.00
freq.    3178.51  E(vib)   ...       0.00
freq.    3193.67  E(vib)   ...       0.00
freq.    3199.78  E(vib)   ...       0.00
freq.    3204.00  E(vib)   ...       0.00
freq.    3206.40  E(vib)   ...       0.00
freq.    3209.33  E(vib)   ...       0.00
freq.    3215.14  E(vib)   ...       0.00
freq.    3221.49  E(vib)   ...       0.00
freq.    3223.12  E(vib)   ...       0.00
freq.    3228.17  E(vib)   ...       0.00

------------
INNER ENERGY
------------

The inner energy is: U= E(el) + E(ZPE) + E(vib) + E(rot) + E(trans)
    E(el)   - is the total energy from the electronic structure calculation
              = E(kin-el) + E(nuc-el) + E(el-el) + E(nuc-nuc)
    E(ZPE)  - the the zero temperature vibrational energy from the frequency calculation
    E(vib)  - the the finite temperature correction to E(ZPE) due to population
              of excited vibrational states
    E(rot)  - is the rotational thermal energy
    E(trans)- is the translational thermal energy

Summary of contributions to the inner energy U:
Electronic energy                ...   -614.79157691 Eh
Zero point energy                ...      0.22062398 Eh     138.44 kcal/mol
Thermal vibrational correction   ...      0.00953286 Eh       5.98 kcal/mol
Thermal rotational correction    ...      0.00141627 Eh       0.89 kcal/mol
Thermal translational correction ...      0.00141627 Eh       0.89 kcal/mol
-----------------------------------------------------------------------
Total thermal energy                   -614.55858752 Eh

Summary of corrections to the electronic energy:
(perhaps to be used in another calculation)
Total thermal correction                  0.01236540 Eh       7.76 kcal/mol
Non-thermal (ZPE) correction              0.22062398 Eh     138.44 kcal/mol
-----------------------------------------------------------------------
Total correction                          0.23298938 Eh     146.20 kcal/mol

--------
ENTHALPY
--------

The enthalpy is H = U + kB*T
                kB is Boltzmann's constant
Total thermal energy              ...   -614.55858752 Eh
Thermal Enthalpy correction       ...      0.00094421 Eh       0.59 kcal/mol
-----------------------------------------------------------------------
Total Enthalpy                    ...   -614.55764331 Eh

Note: Only C1 symmetry has been detected, increase convergence thresholds
      if your molecule has a higher symmetry. Symmetry factor of 1.0 is
      used for the rotational entropy correction.

Note: Rotational entropy computed according to Herzberg
Infrared and Raman Spectra, Chapter V,1, Van Nostrand Reinhold, 1945
Point Group:  C1, Symmetry Number:   1
Rotational constants in cm-1:     0.074921     0.008604     0.007886

Vibrational entropy computed according to the QRRHO of S. Grimme
Chem.Eur.J. 2012 18 9955 using a reference frequency of 100.0 cm-1

-------
ENTROPY
-------

The entropy contributions are T*S = T*(S(el)+S(vib)+S(rot)+S(trans))
     S(el)   - electronic entropy
     S(vib)  - vibrational entropy
     S(rot)  - rotational entropy
     S(trans)- translational entropy

                             ****ORCA TERMINATED NORMALLY****
TOTAL RUN TIME: 0 days 0 hours 17 minutes 0 seconds 473 msec
