                         Program Version 6.0.0  -   RELEASE  -
|  1> !r2SCAN aug-cc-pVTZ d3 TightSCF SlowConv RIJCOSX defgrid2
|  2>
|  3> %pal
|  4> nprocs 4
|  5> end
|  6>
|  7> %scf
|  8> MaxIter 1500
|  9> end
| 10>
| 11> %maxcore 3000
| 12>
| 13> !CPCM
| 14> %cpcm smd true
| 15> SMDsolvent "MeCN"
| 16> surfacetype gepol_ses
| 17> rsolv 2.19
| 18> end
| 19>
| 20> * xyz 1 2
| 21> C           1.36337197862367      0.00925782782262      0.00042331345329
| 22> C           0.74822645901465      1.29296895528656      0.00038316234352
| 23> C          -0.61529602246028      1.39626207073000      0.00023060917101
| 24> C          -1.42835414240665      0.22289484643639      0.00009324782531
| 25> C          -0.81975705014986     -1.06228254929373      0.00009847310954
| 26> C           0.54832834357610     -1.16073135173507      0.00023403456932
| 27> H           1.01965556748509     -2.14817388841103      0.00023835116044
| 28> H          -1.42717703035162     -1.96898347753981      0.00000365697629
| 29> O          -2.71426815111900      0.42982708435483     -0.00003024655139
| 30> C          -3.65743877124361     -0.63904368121668     -0.00016458675956
| 31> H          -4.64491010243250     -0.16049105257969     -0.00025717007063
| 32> H          -3.53752517507174     -1.25276547158578     -0.90821236062697
| 33> H          -3.53771725035146     -1.25281703649443      0.90787613291043
| 34> H          -1.11664261012245      2.36720004312394      0.00019734665612
| 35> H           1.36186872975284      2.19800021241604      0.00046058429736
| 36> S           3.05618464536732     -0.23274264105176      0.00049319565771
| 37> H           3.42654608188951      1.07420050973759     -0.00198104412179
| 38> *
| 39>
| 40>                          ****END OF INPUT****

CARTESIAN COORDINATES (ANGSTROEM)
---------------------------------
  C      1.363372    0.009258    0.000423
  C      0.748226    1.292969    0.000383
  C     -0.615296    1.396262    0.000231
  C     -1.428354    0.222895    0.000093
  C     -0.819757   -1.062283    0.000098
  C      0.548328   -1.160731    0.000234
  H      1.019656   -2.148174    0.000238
  H     -1.427177   -1.968983    0.000004
  O     -2.714268    0.429827   -0.000030
  C     -3.657439   -0.639044   -0.000165
  H     -4.644910   -0.160491   -0.000257
  H     -3.537525   -1.252765   -0.908212
  H     -3.537717   -1.252817    0.907876
  H     -1.116643    2.367200    0.000197
  H      1.361869    2.198000    0.000461
  S      3.056185   -0.232743    0.000493
  H      3.426546    1.074201   -0.001981

 Total Charge           Charge          ....    1
 Multiplicity           Mult            ....    2
 Number of Electrons    NEL             ....   73
 Basis Dimension        Dim             ....  602

ORBITAL ENERGIES
----------------
                 SPIN UP ORBITALS
  NO   OCC          E(Eh)            E(eV)
   0   1.0000     -88.635715     -2411.9004
   1   1.0000     -19.056571      -518.5557
   2   1.0000     -10.163934      -276.5747
   3   1.0000     -10.139460      -275.9087
   4   1.0000     -10.103001      -274.9166
   5   1.0000     -10.094375      -274.6819
   6   1.0000     -10.090351      -274.5724
   7   1.0000     -10.085606      -274.4433
   8   1.0000     -10.085115      -274.4299
   9   1.0000      -7.928405      -215.7429
  10   1.0000      -5.873840      -159.8353
  11   1.0000      -5.870649      -159.7485
  12   1.0000      -5.869570      -159.7191
  13   1.0000      -1.105561       -30.0838
  14   1.0000      -0.881383       -23.9836
  15   1.0000      -0.811735       -22.0884
  16   1.0000      -0.767769       -20.8921
  17   1.0000      -0.739939       -20.1348
  18   1.0000      -0.682160       -18.5625
  19   1.0000      -0.625062       -17.0088
  20   1.0000      -0.593067       -16.1382
  21   1.0000      -0.539882       -14.6909
  22   1.0000      -0.510409       -13.8889
  23   1.0000      -0.486399       -13.2356
  24   1.0000      -0.482605       -13.1323
  25   1.0000      -0.445430       -12.1208
  26   1.0000      -0.432366       -11.7653
  27   1.0000      -0.426108       -11.5950
  28   1.0000      -0.408002       -11.1023
  29   1.0000      -0.401383       -10.9222
  30   1.0000      -0.369041       -10.0421
  31   1.0000      -0.365613        -9.9488
  32   1.0000      -0.360987        -9.8230
  33   1.0000      -0.328947        -8.9511
  34   1.0000      -0.307280        -8.3615
  35   1.0000      -0.287364        -7.8196
  36   1.0000      -0.236142        -6.4257
  37   0.0000      -0.083822        -2.2809
  38   0.0000      -0.077041        -2.0964
  39   0.0000      -0.038513        -1.0480
  40   0.0000       0.005175         0.1408
  41   0.0000       0.006348         0.1727

                 SPIN DOWN ORBITALS
  NO   OCC          E(Eh)            E(eV)
   0   1.0000     -88.633725     -2411.8463
   1   1.0000     -19.050930      -518.4022
   2   1.0000     -10.161043      -276.4960
   3   1.0000     -10.135243      -275.7940
   4   1.0000     -10.103173      -274.9213
   5   1.0000     -10.093551      -274.6595
   6   1.0000     -10.090366      -274.5728
   7   1.0000     -10.084329      -274.4085
   8   1.0000     -10.084256      -274.4066
   9   1.0000      -7.927081      -215.7068
  10   1.0000      -5.872760      -159.8059
  11   1.0000      -5.868568      -159.6919
  12   1.0000      -5.865490      -159.6081
  13   1.0000      -1.097247       -29.8576
  14   1.0000      -0.873937       -23.7810
  15   1.0000      -0.803785       -21.8721
  16   1.0000      -0.765288       -20.8245
  17   1.0000      -0.735973       -20.0268
  18   1.0000      -0.674142       -18.3443
  19   1.0000      -0.620969       -16.8974
  20   1.0000      -0.587997       -16.0002
  21   1.0000      -0.537828       -14.6351
  22   1.0000      -0.508853       -13.8466
  23   1.0000      -0.483279       -13.1507
  24   1.0000      -0.467713       -12.7271
  25   1.0000      -0.442843       -12.0504
  26   1.0000      -0.431758       -11.7487
  27   1.0000      -0.423677       -11.5288
  28   1.0000      -0.399589       -10.8734
  29   1.0000      -0.391790       -10.6611
  30   1.0000      -0.366507        -9.9732
  31   1.0000      -0.357297        -9.7225
  32   1.0000      -0.349495        -9.5102
  33   1.0000      -0.325953        -8.8696
  34   1.0000      -0.288147        -7.8409
  35   1.0000      -0.280603        -7.6356
  36   0.0000      -0.204889        -5.5753
  37   0.0000      -0.068089        -1.8528
  38   0.0000      -0.055890        -1.5209
  39   0.0000      -0.035785        -0.9738
  40   0.0000       0.006653         0.1810

MULLIKEN ATOMIC CHARGES AND SPIN POPULATIONS
--------------------------------------------
   0 C :    0.896262    0.192039
   1 C :   -0.624456   -0.026907
   2 C :   -0.788971    0.060166
   3 C :    1.231559    0.163914
   4 C :   -0.220518    0.023863
   5 C :   -0.764541    0.050242
   6 H :    0.445501    0.000713
   7 H :    0.426702    0.013884
   8 O :   -0.610783    0.170137
   9 C :   -0.615987   -0.016083
  10 H :    0.248937   -0.001109
  11 H :    0.284890    0.009065
  12 H :    0.284605    0.009069
  13 H :    0.568378    0.008411
  14 H :    0.285178    0.000353
  15 S :   -0.210088    0.385429
  16 H :    0.163332   -0.043187
Sum of atomic charges         :    1.0000000

LOEWDIN ATOMIC CHARGES AND SPIN POPULATIONS
-------------------------------------------
   0 C :   -0.549247    0.165098
   1 C :    0.178113    0.042792
   2 C :    0.260841    0.067122
   3 C :   -0.347030    0.127318
   4 C :    0.262853    0.062523
   5 C :    0.158104    0.061117
   6 H :   -0.161059    0.003357
   7 H :   -0.158788    0.006266
   8 O :    0.646393    0.145021
   9 C :    0.425880    0.016440
  10 H :   -0.156876   -0.000337
  11 H :   -0.146250    0.004858
  12 H :   -0.146200    0.004858
  13 H :   -0.143883    0.007764
  14 H :   -0.161394   -0.000617
  15 S :    1.501640    0.249725
  16 H :   -0.463096    0.036695

  Mayer bond orders larger than 0.100000
B(  0-C ,  1-C ) :   0.7532 B(  0-C ,  5-C ) :   0.9334 B(  0-C , 15-S ) :   0.4428
B(  1-C ,  2-C ) :   1.4263 B(  1-C ,  3-C ) :  -0.2790 B(  1-C , 13-H ) :   0.1031
B(  1-C , 14-H ) :   0.7854 B(  2-C ,  3-C ) :   0.5919 B(  2-C ,  4-C ) :   0.1417
B(  2-C ,  8-O ) :   0.3100 B(  2-C , 13-H ) :   0.3009 B(  3-C ,  4-C ) :   0.8264
B(  3-C ,  5-C ) :  -0.2642 B(  3-C ,  8-O ) :   0.4482 B(  4-C ,  5-C ) :   1.0704
B(  4-C ,  7-H ) :   0.4673 B(  4-C ,  8-O ) :  -0.1586 B(  4-C ,  9-C ) :  -0.1192
B(  4-C , 15-S ) :   0.1339 B(  5-C ,  6-H ) :   0.6159 B(  5-C ,  7-H ) :   0.1024
B(  5-C , 15-S ) :   0.1677 B(  8-O ,  9-C ) :   0.9778 B(  9-C , 10-H ) :   0.9598
B(  9-C , 11-H ) :   0.8928 B(  9-C , 12-H ) :   0.8932 B( 15-S , 16-H ) :   1.0395

Dispersion correction           -0.005448573
FINAL SINGLE POINT ENERGY      -744.702835061282

DIPOLE MOMENT
-------------

Method             : SCF
Type of density    : Electron Density
Multiplicity       :   2
Irrep              :   0
Energy             :  -744.6973864880213796 Eh
Relativity type    :
Basis              : AO
                                X                 Y                 Z
Electronic contribution:      7.702771231       0.892910261       0.001690163
Nuclear contribution   :     -8.043505047      -1.005233306      -0.003147719
                        -----------------------------------------
Total Dipole Moment    :     -0.340733817      -0.112323045      -0.001457555
                        -----------------------------------------
Magnitude (a.u.)       :      0.358773082
Magnitude (Debye)      :      0.911928703

Rotational constants in cm-1:             0.155356             0.023594             0.020567
Rotational constants in MHz :          4657.467859           707.342014           616.570776

                             ****ORCA TERMINATED NORMALLY****
TOTAL RUN TIME: 0 days 0 hours 3 minutes 48 seconds 395 msec
