                         Program Version 6.0.0  -   RELEASE  -
|  1> !TPSSh aug-cc-pVTZ d3 TightSCF SlowConv RIJCOSX defgrid2
|  2>
|  3> %pal
|  4> nprocs 6
|  5> end
|  6>
|  7> %scf
|  8> MaxIter 1500
|  9> end
| 10>
| 11> %maxcore 3000
| 12>
| 13> !CPCM
| 14> %cpcm smd true
| 15> SMDsolvent "MeCN"
| 16> surfacetype gepol_ses
| 17> rsolv 2.19
| 18> end
| 19>
| 20> * xyz 0 1
| 21>   C          -3.63585826706225      2.04954257401693      0.47443381810844
| 22>   C          -4.87241983115698      1.42440470473132      0.35830383536464
| 23>   C          -2.46535713813143      1.38616628453744      0.08266169164053
| 24>   C          -2.55776657547918      0.09897886985960     -0.46306142975693
| 25>   C          -3.79978924952600     -0.51916986182258     -0.59803099874730
| 26>   C          -4.95599832971811      0.13746555345514     -0.17809343648610
| 27>   C          -1.17321606171113      2.13343259763450      0.18535792234855
| 28>   C           0.10741425373326      1.38186400208811      0.36860268391772
| 29>   C           1.28701662685068      1.98211173251186     -0.09199289471826
| 30>   C           2.51435831281490      1.35446088401070      0.08950879777202
| 31>   C           2.57960999330580      0.13076888041485      0.75971104026335
| 32>   C           1.41455681703054     -0.45984247248896      1.24776587112461
| 33>   C           0.18154991647772      0.15903136862244      1.04843910770257
| 34>   O          -1.16409607817297      3.34634804651925      0.11965758705371
| 35>   H          -3.86490029176021     -1.51883268544354     -1.03758855311185
| 36>   H          -5.92944194329363     -0.35260028721037     -0.27615452017651
| 37>   H          -3.54961418329670      3.06533225879298      0.86902811355696
| 38>   H          -5.77986414959084      1.94364611495317      0.68059448976304
| 39>   H          -1.65609565460764     -0.41312956350598     -0.80981363751728
| 40>   H          -0.72685535311036     -0.29990211983977      1.44815127666628
| 41>   H           3.54578493689968     -0.36081337126485      0.90876593254533
| 42>   H           1.46572642491924     -1.40813704309686      1.79081220626573
| 43>   H           1.21423966773037      2.95126688882692     -0.59239016424858
| 44>   H           3.42886668785525      1.82280543469765     -0.28640901233067
| 45> *
| 46>
| 47>                          ****END OF INPUT****

CARTESIAN COORDINATES (ANGSTROEM)
---------------------------------
  C     -3.635858    2.049543    0.474434
  C     -4.872420    1.424405    0.358304
  C     -2.465357    1.386166    0.082662
  C     -2.557767    0.098979   -0.463061
  C     -3.799789   -0.519170   -0.598031
  C     -4.955998    0.137466   -0.178093
  C     -1.173216    2.133433    0.185358
  C      0.107414    1.381864    0.368603
  C      1.287017    1.982112   -0.091993
  C      2.514358    1.354461    0.089509
  C      2.579610    0.130769    0.759711
  C      1.414557   -0.459842    1.247766
  C      0.181550    0.159031    1.048439
  O     -1.164096    3.346348    0.119658
  H     -3.864900   -1.518833   -1.037589
  H     -5.929442   -0.352600   -0.276155
  H     -3.549614    3.065332    0.869028
  H     -5.779864    1.943646    0.680594
  H     -1.656096   -0.413130   -0.809814
  H     -0.726855   -0.299902    1.448151
  H      3.545785   -0.360813    0.908766
  H      1.465726   -1.408137    1.790812
  H      1.214240    2.951267   -0.592390
  H      3.428867    1.822805   -0.286409

 Total Charge           Charge          ....    0
 Multiplicity           Mult            ....    1
 Number of Electrons    NEL             ....   96
 Basis Dimension        Dim             ....  874

ORBITAL ENERGIES
----------------

  NO   OCC          E(Eh)            E(eV)
   0   2.0000     -19.044783      -518.2349
   1   2.0000     -10.203323      -277.6465
   2   2.0000     -10.129885      -275.6482
   3   2.0000     -10.129869      -275.6478
   4   2.0000     -10.127594      -275.5858
   5   2.0000     -10.127554      -275.5848
   6   2.0000     -10.125364      -275.5252
   7   2.0000     -10.125338      -275.5245
   8   2.0000     -10.124654      -275.5058
   9   2.0000     -10.124644      -275.5056
  10   2.0000     -10.122430      -275.4453
  11   2.0000     -10.122405      -275.4447
  12   2.0000     -10.122227      -275.4398
  13   2.0000     -10.122198      -275.4390
  14   2.0000      -1.024974       -27.8909
  15   2.0000      -0.846226       -23.0270
  16   2.0000      -0.840542       -22.8723
  17   2.0000      -0.757468       -20.6118
  18   2.0000      -0.735512       -20.0143
  19   2.0000      -0.732853       -19.9420
  20   2.0000      -0.728954       -19.8359
  21   2.0000      -0.635348       -17.2887
  22   2.0000      -0.597200       -16.2506
  23   2.0000      -0.593152       -16.1405
  24   2.0000      -0.582220       -15.8430
  25   2.0000      -0.539133       -14.6706
  26   2.0000      -0.510469       -13.8906
  27   2.0000      -0.485176       -13.2023
  28   2.0000      -0.453551       -12.3418
  29   2.0000      -0.444877       -12.1057
  30   2.0000      -0.437338       -11.9006
  31   2.0000      -0.428313       -11.6550
  32   2.0000      -0.417568       -11.3626
  33   2.0000      -0.407860       -11.0984
  34   2.0000      -0.406450       -11.0601
  35   2.0000      -0.406381       -11.0582
  36   2.0000      -0.386032       -10.5045
  37   2.0000      -0.363970        -9.9041
  38   2.0000      -0.349063        -9.4985
  39   2.0000      -0.346282        -9.4228
  40   2.0000      -0.339933        -9.2500
  41   2.0000      -0.327221        -8.9041
  42   2.0000      -0.325716        -8.8632
  43   2.0000      -0.257187        -6.9984
  44   2.0000      -0.255239        -6.9454
  45   2.0000      -0.253566        -6.8999
  46   2.0000      -0.251523        -6.8443
  47   2.0000      -0.238619        -6.4932
  48   0.0000      -0.084276        -2.2933
  49   0.0000      -0.037212        -1.0126
  50   0.0000      -0.032083        -0.8730
  51   0.0000      -0.024453        -0.6654
  52   0.0000      -0.005100        -0.1388

MULLIKEN ATOMIC CHARGES
-----------------------
   0 C :   -1.023163
   1 C :   -0.317935
   2 C :    1.485225
   3 C :   -0.502826
   4 C :   -0.845991
   5 C :   -0.067869
   6 C :    1.179308
   7 C :    1.484801
   8 C :   -1.025241
   9 C :   -0.325477
  10 C :   -0.082402
  11 C :   -0.844898
  12 C :   -0.505762
  13 O :   -1.087972
  14 H :    0.336115
  15 H :    0.414813
  16 H :   -0.177913
  17 H :    0.470936
  18 H :    0.181125
  19 H :    0.175557
  20 H :    0.426571
  21 H :    0.340362
  22 H :   -0.184366
  23 H :    0.497004
Sum of atomic charges:    0.0000000

LOEWDIN ATOMIC CHARGES
----------------------
   0 C :    0.196260
   1 C :    0.204164
   2 C :   -0.140073
   3 C :    0.197107
   4 C :    0.209153
   5 C :    0.198686
   6 C :   -0.540559
   7 C :   -0.140066
   8 C :    0.196255
   9 C :    0.204169
  10 C :    0.198600
  11 C :    0.209140
  12 C :    0.197126
  13 O :    0.506289
  14 H :   -0.166245
  15 H :   -0.165694
  16 H :   -0.178418
  17 H :   -0.167824
  18 H :   -0.169949
  19 H :   -0.169795
  20 H :   -0.165708
  21 H :   -0.166232
  22 H :   -0.178590
  23 H :   -0.167794

  Mayer bond orders larger than 0.100000
B(  0-C ,  1-C ) :   1.4098 B(  0-C ,  2-C ) :   0.2752 B(  0-C ,  3-C ) :  -0.3148
B(  0-C ,  4-C ) :   0.1957 B(  0-C ,  5-C ) :  -0.1002 B(  0-C ,  6-C ) :   0.2193
B(  0-C , 16-H ) :   1.3335 B(  0-C , 17-H ) :  -0.1120 B(  1-C ,  4-C ) :   0.1225
B(  1-C ,  5-C ) :   1.3176 B(  1-C , 17-H ) :   0.5101 B(  2-C ,  3-C ) :   0.7993
B(  2-C ,  4-C ) :  -0.2266 B(  2-C ,  6-C ) :   0.4893 B(  2-C ,  7-C ) :  -0.1047
B(  2-C , 17-H ) :   0.1345 B(  3-C ,  4-C ) :   1.4878 B(  3-C ,  6-C ) :   0.1361
B(  3-C , 12-C ) :   0.1040 B(  3-C , 18-H ) :   1.1476 B(  4-C ,  5-C ) :   1.4544
B(  4-C , 14-H ) :   0.6593 B(  5-C ,  6-C ) :   0.1447 B(  5-C , 14-H ) :   0.1042
B(  5-C , 15-H ) :   0.5611 B(  5-C , 17-H ) :   0.1199 B(  6-C ,  7-C ) :   0.4918
B(  6-C ,  8-C ) :   0.2094 B(  6-C , 10-C ) :   0.1411 B(  6-C , 12-C ) :   0.1329
B(  6-C , 13-O ) :  -0.1051 B(  6-C , 16-H ) :  -0.2414 B(  6-C , 22-H ) :  -0.2450
B(  7-C ,  8-C ) :   0.2790 B(  7-C , 11-C ) :  -0.2201 B(  7-C , 12-C ) :   0.8034
B(  7-C , 23-H ) :   0.1397 B(  8-C ,  9-C ) :   1.4248 B(  8-C , 11-C ) :   0.1951
B(  8-C , 12-C ) :  -0.3160 B(  8-C , 22-H ) :   1.3502 B(  8-C , 23-H ) :  -0.1147
B(  9-C , 10-C ) :   1.3310 B(  9-C , 11-C ) :   0.1294 B(  9-C , 23-H ) :   0.4710
B( 10-C , 11-C ) :   1.4678 B( 10-C , 20-H ) :   0.5414 B( 10-C , 21-H ) :   0.1078
B( 10-C , 23-H ) :   0.1321 B( 11-C , 12-C ) :   1.4849 B( 11-C , 21-H ) :   0.6476
B( 12-C , 19-H ) :   1.1544 B( 13-O , 16-H ) :   0.3480 B( 13-O , 22-H ) :   0.3488
B( 16-H , 18-H ) :   0.1201 B( 19-H , 22-H ) :   0.1262

Dispersion correction           -0.034966152
FINAL SINGLE POINT ENERGY      -576.918636990410

DIPOLE MOMENT
-------------

Method             : SCF
Type of density    : Electron Density
Multiplicity       :   1
Irrep              :   0
Energy             :  -576.8836708381269318 Eh
Relativity type    :
Basis              : AO
                                X                 Y                 Z
Electronic contribution:      0.023545688       3.162116907      -0.166297950
Nuclear contribution   :     -0.036869412      -4.873128971       0.257597129
                        -----------------------------------------
Total Dipole Moment    :     -0.013323725      -1.711012064       0.091299178
                        -----------------------------------------
Magnitude (a.u.)       :      1.713497985
Magnitude (Debye)      :      4.355365752

Rotational constants in cm-1:             0.057049             0.013730             0.011699
Rotational constants in MHz :          1710.297566           411.601828           350.719713

                             ****ORCA TERMINATED NORMALLY****
TOTAL RUN TIME: 0 days 0 hours 7 minutes 25 seconds 817 msec
