                         Program Version 6.0.0  -   RELEASE  -
|  1> !B3LYP aug-cc-pVTZ d3 TightSCF SlowConv RIJCOSX defgrid2
|  2>
|  3> %pal
|  4> nprocs 4
|  5> end
|  6>
|  7> %scf
|  8> MaxIter 1500
|  9> end
| 10>
| 11> %maxcore 3000
| 12>
| 13> !CPCM
| 14> %cpcm smd true
| 15> SMDsolvent "MeCN"
| 16> surfacetype gepol_ses
| 17> rsolv 2.19
| 18> end
| 19>
| 20> * xyz 1 2
| 21> C           0.76309641907195     -1.16293983433003      0.23718381873604
| 22> C          -0.76304171601446     -1.16296952747842     -0.23724555362178
| 23> H          -1.27590174641137     -2.02340834769785      0.21800270990120
| 24> H          -0.77362876837767     -1.19896716686552     -1.34057732579590
| 25> O          -1.30210126379069     -0.00003866110666      0.26158364977248
| 26> C          -0.76310446688411      1.16294442598402     -0.23720418219692
| 27> C           0.76303513090937      1.16298601934474      0.23722214632434
| 28> H           1.27589626879449      2.02341629109980     -0.21804063751063
| 29> H           0.77362940968102      1.19899371952034      1.34055360051981
| 30> O           1.30210147370824      0.00004813344550     -0.26159746316919
| 31> H          -1.27602354622748      2.02334978586835      0.21803685187514
| 32> H          -0.77366667806753      1.19894468683083     -1.34053597047731
| 33> H           1.27601869897724     -2.02334025573413     -0.21806265273971
| 34> H           0.77366218463101     -1.19894196888098      1.34051380838241
| 35> *
| 36>
| 37>                          ****END OF INPUT****

CARTESIAN COORDINATES (ANGSTROEM)
---------------------------------
  C      0.763096   -1.162940    0.237184
  C     -0.763042   -1.162970   -0.237246
  H     -1.275902   -2.023408    0.218003
  H     -0.773629   -1.198967   -1.340577
  O     -1.302101   -0.000039    0.261584
  C     -0.763104    1.162944   -0.237204
  C      0.763035    1.162986    0.237222
  H      1.275896    2.023416   -0.218041
  H      0.773629    1.198994    1.340554
  O      1.302101    0.000048   -0.261597
  H     -1.276024    2.023350    0.218037
  H     -0.773667    1.198945   -1.340536
  H      1.276019   -2.023340   -0.218063
  H      0.773662   -1.198942    1.340514

 Total Charge           Charge          ....    1
 Multiplicity           Mult            ....    2
 Number of Electrons    NEL             ....   47
 Basis Dimension        Dim             ....  460

ORBITAL ENERGIES
----------------
                 SPIN UP ORBITALS
  NO   OCC          E(Eh)            E(eV)
   0   1.0000     -19.241209      -523.5799
   1   1.0000     -19.241204      -523.5798
   2   1.0000     -10.276930      -279.6495
   3   1.0000     -10.276926      -279.6494
   4   1.0000     -10.276768      -279.6451
   5   1.0000     -10.276766      -279.6450
   6   1.0000      -1.168599       -31.7992
   7   1.0000      -1.130351       -30.7584
   8   1.0000      -0.840286       -22.8653
   9   1.0000      -0.740477       -20.1494
  10   1.0000      -0.734933       -19.9985
  11   1.0000      -0.631099       -17.1731
  12   1.0000      -0.576781       -15.6950
  13   1.0000      -0.559669       -15.2294
  14   1.0000      -0.532993       -14.5035
  15   1.0000      -0.528194       -14.3729
  16   1.0000      -0.524328       -14.2677
  17   1.0000      -0.461004       -12.5446
  18   1.0000      -0.436986       -11.8910
  19   1.0000      -0.427162       -11.6237
  20   1.0000      -0.407744       -11.0953
  21   1.0000      -0.373644       -10.1674
  22   1.0000      -0.367097        -9.9892
  23   1.0000      -0.306330        -8.3357
  24   0.0000      -0.004725        -0.1286
  25   0.0000       0.007959         0.2166
  26   0.0000       0.009958         0.2710
  27   0.0000       0.013470         0.3665
  28   0.0000       0.026143         0.7114

                 SPIN DOWN ORBITALS
  NO   OCC          E(Eh)            E(eV)
   0   1.0000     -19.232339      -523.3386
   1   1.0000     -19.232333      -523.3384
   2   1.0000     -10.275295      -279.6050
   3   1.0000     -10.275294      -279.6050
   4   1.0000     -10.275165      -279.6015
   5   1.0000     -10.275159      -279.6013
   6   1.0000      -1.152971       -31.3739
   7   1.0000      -1.112935       -30.2845
   8   1.0000      -0.831669       -22.6309
   9   1.0000      -0.735554       -20.0155
  10   1.0000      -0.717859       -19.5339
  11   1.0000      -0.623515       -16.9667
  12   1.0000      -0.561395       -15.2763
  13   1.0000      -0.550968       -14.9926
  14   1.0000      -0.528752       -14.3881
  15   1.0000      -0.523441       -14.2435
  16   1.0000      -0.507983       -13.8229
  17   1.0000      -0.424401       -11.5486
  18   1.0000      -0.423495       -11.5239
  19   1.0000      -0.423335       -11.5195
  20   1.0000      -0.395472       -10.7614
  21   1.0000      -0.361124        -9.8267
  22   1.0000      -0.346133        -9.4187
  23   0.0000      -0.211884        -5.7657
  24   0.0000      -0.003740        -0.1018
  25   0.0000       0.008588         0.2337
  26   0.0000       0.010326         0.2810
  27   0.0000       0.014033         0.3819

MULLIKEN ATOMIC CHARGES AND SPIN POPULATIONS
--------------------------------------------
   0 C :   -0.095453    0.074293
   1 C :   -0.095387    0.074301
   2 H :    0.311155    0.010551
   3 H :    0.251498    0.012845
   4 O :   -0.434564    0.304587
   5 C :   -0.095432    0.074291
   6 C :   -0.095519    0.074293
   7 H :    0.311174    0.010573
   8 H :    0.251538    0.012837
   9 O :   -0.434549    0.304599
  10 H :    0.311196    0.010577
  11 H :    0.251591    0.012843
  12 H :    0.311143    0.010572
  13 H :    0.251609    0.012838
Sum of atomic charges         :    1.0000000

LOEWDIN ATOMIC CHARGES AND SPIN POPULATIONS
-------------------------------------------
   0 C :    0.136265    0.096481
   1 C :    0.136256    0.096481
   2 H :   -0.109787    0.014164
   3 H :   -0.112228    0.013483
   4 O :    0.671511    0.251744
   5 C :    0.136262    0.096480
   6 C :    0.136260    0.096481
   7 H :   -0.109788    0.014163
   8 H :   -0.112228    0.013483
   9 O :    0.671515    0.251748
  10 H :   -0.109786    0.014164
  11 H :   -0.112232    0.013483
  12 H :   -0.109787    0.014163
  13 H :   -0.112234    0.013483

  Mayer bond orders larger than 0.100000
B(  0-C ,  1-C ) :   0.8609 B(  0-C ,  6-C ) :   0.1132 B(  0-C ,  9-O ) :   0.9083
B(  0-C , 12-H ) :   0.8914 B(  0-C , 13-H ) :   0.9160 B(  1-C ,  2-H ) :   0.8914
B(  1-C ,  3-H ) :   0.9160 B(  1-C ,  4-O ) :   0.9084 B(  1-C ,  5-C ) :   0.1132
B(  4-O ,  5-C ) :   0.9084 B(  4-O ,  9-O ) :   0.1291 B(  5-C ,  6-C ) :   0.8608
B(  5-C , 10-H ) :   0.8913 B(  5-C , 11-H ) :   0.9160 B(  6-C ,  7-H ) :   0.8913
B(  6-C ,  8-H ) :   0.9160 B(  6-C ,  9-O ) :   0.9084

Dispersion correction           -0.017771917
FINAL SINGLE POINT ENERGY      -307.401418667210

DIPOLE MOMENT
-------------

Method             : SCF
Type of density    : Electron Density
Multiplicity       :   2
Irrep              :   0
Energy             :  -307.3836467501990910 Eh
Relativity type    :
Basis              : AO
                                X                 Y                 Z
Electronic contribution:     -0.000003630      -0.000004494       0.000019699
Nuclear contribution   :      0.000002668       0.000005347      -0.000029732
                        -----------------------------------------
Total Dipole Moment    :     -0.000000961       0.000000853      -0.000010033
                        -----------------------------------------
Magnitude (a.u.)       :      0.000010115
Magnitude (Debye)      :      0.000025711

Rotational constants in cm-1:             0.169249             0.162821             0.094443
Rotational constants in MHz :          5073.947219          4881.263290          2831.336454

                             ****ORCA TERMINATED NORMALLY****
TOTAL RUN TIME: 0 days 0 hours 2 minutes 46 seconds 966 msec
