                         Program Version 6.0.0  -   RELEASE  -
|  1> !B3LYP freq aug-cc-pVTZ d3 TightSCF SlowConv RIJCOSX defgrid2
|  2>
|  3> %pal
|  4> nprocs 12
|  5>
|  6> end
|  7>
|  8> %scf
|  9> MaxIter 1500
| 10> end
| 11>
| 12> %maxcore 5000
| 13>
| 14> !CPCM
| 15> %cpcm smd true
| 16> SMDsolvent "MeCN"
| 17> surfacetype gepol_ses
| 18> rsolv 2.19
| 19> end
| 20>
| 21> * xyz 0 1
| 22> C          -1.15706441901489     -1.24224498192326     -0.00071519030120
| 23> C          -2.50916461155393     -0.94819439264637     -0.00043665602859
| 24> C          -2.93286628149901      0.37855570039730      0.00021764077708
| 25> C          -2.00131730821105      1.41120337995204      0.00013123190714
| 26> C          -0.64458329170556      1.12539158959221     -0.00031562888609
| 27> C          -0.21509330526861     -0.20360898260321     -0.00048236321981
| 28> C           1.19828287394084     -0.60238875771485      0.00038202369281
| 29> O           1.63971604284017     -1.70509227583071     -0.00021957678013
| 30> Cl          2.40274294796315      0.79153287556473      0.00246950156572
| 31> H           0.07331722173478      1.92971155384724     -0.00066463630980
| 32> H          -2.33100190605707      2.44043744992021      0.00119583861298
| 33> H          -3.99005149394586      0.60584012876806      0.00097624902762
| 34> H          -3.23379811601314     -1.75011258873000     -0.00070324354475
| 35> H          -0.81979555320980     -2.26809669859336     -0.00134049051298
| 36> *
| 37>
| 38>                          ****END OF INPUT****

CARTESIAN COORDINATES (ANGSTROEM)
---------------------------------
  C     -1.157064   -1.242245   -0.000715
  C     -2.509165   -0.948194   -0.000437
  C     -2.932866    0.378556    0.000218
  C     -2.001317    1.411203    0.000131
  C     -0.644583    1.125392   -0.000316
  C     -0.215093   -0.203609   -0.000482
  C      1.198283   -0.602389    0.000382
  O      1.639716   -1.705092   -0.000220
  Cl     2.402743    0.791533    0.002470
  H      0.073317    1.929712   -0.000665
  H     -2.331002    2.440437    0.001196
  H     -3.990051    0.605840    0.000976
  H     -3.233798   -1.750113   -0.000703
  H     -0.819796   -2.268097   -0.001340

 Total Charge           Charge          ....    0
 Multiplicity           Mult            ....    1
 Number of Electrons    NEL             ....   72
 Basis Dimension        Dim             ....  533

ORBITAL ENERGIES
----------------

  NO   OCC          E(Eh)            E(eV)
   0   2.0000    -101.560028     -2763.5889
   1   2.0000     -19.160611      -521.3867
   2   2.0000     -10.327715      -281.0314
   3   2.0000     -10.210102      -277.8310
   4   2.0000     -10.194476      -277.4058
   5   2.0000     -10.194254      -277.3998
   6   2.0000     -10.191014      -277.3116
   7   2.0000     -10.185455      -277.1603
   8   2.0000     -10.185288      -277.1558
   9   2.0000      -9.464855      -257.5518
  10   2.0000      -7.226923      -196.6546
  11   2.0000      -7.220108      -196.4691
  12   2.0000      -7.219072      -196.4409
  13   2.0000      -1.098261       -29.8852
  14   2.0000      -0.879644       -23.9363
  15   2.0000      -0.840989       -22.8845
  16   2.0000      -0.776569       -21.1315
  17   2.0000      -0.762385       -20.7456
  18   2.0000      -0.655680       -17.8420
  19   2.0000      -0.620054       -16.8725
  20   2.0000      -0.570401       -15.5214
  21   2.0000      -0.527999       -14.3676
  22   2.0000      -0.490238       -13.3400
  23   2.0000      -0.480731       -13.0813
  24   2.0000      -0.454221       -12.3600
  25   2.0000      -0.449424       -12.2294
  26   2.0000      -0.447775       -12.1846
  27   2.0000      -0.434574       -11.8254
  28   2.0000      -0.382149       -10.3988
  29   2.0000      -0.371088       -10.0978
  30   2.0000      -0.356224        -9.6934
  31   2.0000      -0.327771        -8.9191
  32   2.0000      -0.326775        -8.8920
  33   2.0000      -0.301240        -8.1972
  34   2.0000      -0.276832        -7.5330
  35   2.0000      -0.271491        -7.3876
  36   0.0000      -0.082428        -2.2430
  37   0.0000      -0.024726        -0.6728
  38   0.0000      -0.009714        -0.2643
  39   0.0000       0.004709         0.1281
  40   0.0000       0.014290         0.3888

MULLIKEN ATOMIC CHARGES
-----------------------
   0 C :   -0.832797
   1 C :   -0.420665
   2 C :   -0.291664
   3 C :   -0.650685
   4 C :   -0.744116
   5 C :    1.399632
   6 C :    0.529455
   7 O :   -0.676706
   8 Cl:   -0.299985
   9 H :    0.323736
  10 H :    0.516714
  11 H :    0.462054
  12 H :    0.457326
  13 H :    0.227700
Sum of atomic charges:   -0.0000000

LOEWDIN ATOMIC CHARGES
----------------------
   0 C :    0.195676
   1 C :    0.220660
   2 C :    0.219155
   3 C :    0.217921
   4 C :    0.163380
   5 C :   -0.243905
   6 C :   -1.079770
   7 O :    0.417401
   8 Cl:    0.814122
   9 H :   -0.240661
  10 H :   -0.169164
  11 H :   -0.165328
  12 H :   -0.168916
  13 H :   -0.180572

  Mayer bond orders larger than 0.100000
B(  0-C ,  1-C ) :   1.2206 B(  0-C ,  4-C ) :  -0.1312 B(  0-C ,  5-C ) :   0.4957
B(  0-C ,  6-C ) :   0.1474 B(  0-C , 12-H ) :  -0.1066 B(  0-C , 13-H ) :   0.8867
B(  1-C ,  2-C ) :   1.1759 B(  1-C , 12-H ) :   0.6684 B(  2-C ,  3-C ) :   1.2504
B(  2-C ,  5-C ) :  -0.1335 B(  2-C , 11-H ) :   0.6691 B(  3-C ,  4-C ) :   1.1866
B(  3-C ,  5-C ) :  -0.1271 B(  3-C , 10-H ) :   0.5673 B(  4-C ,  5-C ) :   0.3325
B(  4-C ,  6-C ) :   0.2015 B(  4-C ,  9-H ) :   1.0474 B(  4-C , 10-H ) :  -0.1013
B(  5-C ,  6-C ) :   0.5412 B(  5-C ,  7-O ) :   0.2290 B(  5-C ,  8-Cl) :   0.1003
B(  6-C ,  7-O ) :   1.0953 B(  6-C ,  8-Cl) :   0.7666 B(  7-O , 13-H ) :   0.1421
B(  8-Cl,  9-H ) :  -0.1188

Dispersion correction           -0.028253168
FINAL SINGLE POINT ENERGY      -805.122374109009

DIPOLE MOMENT
-------------

Method             : SCF
Type of density    : Electron Density
Multiplicity       :   1
Irrep              :   0
Energy             :  -805.0941209414559125 Eh
Relativity type    :
Basis              : AO
                                X                 Y                 Z
Electronic contribution:     10.737410710       0.772593750       0.004957173
Nuclear contribution   :    -12.908310486      -0.207513336      -0.005468533
                        -----------------------------------------
Total Dipole Moment    :     -2.170899775       0.565080414      -0.000511360
                        -----------------------------------------
Magnitude (a.u.)       :      2.243239169
Magnitude (Debye)      :      5.701860834

VIBRATIONAL FREQUENCIES
-----------------------

Scaling factor for frequencies =  1.000000000  (already applied!)

     0:       0.00 cm**-1
     1:       0.00 cm**-1
     2:       0.00 cm**-1
     3:       0.00 cm**-1
     4:       0.00 cm**-1
     5:       0.00 cm**-1
     6:      21.29 cm**-1
     7:     146.18 cm**-1
     8:     184.35 cm**-1
     9:     307.07 cm**-1
    10:     401.45 cm**-1
    11:     407.79 cm**-1
    12:     428.76 cm**-1
    13:     497.35 cm**-1
    14:     625.83 cm**-1
    15:     661.31 cm**-1
    16:     662.53 cm**-1
    17:     690.32 cm**-1
    18:     792.27 cm**-1
    19:     854.73 cm**-1
    20:     855.64 cm**-1
    21:     968.95 cm**-1
    22:    1008.62 cm**-1
    23:    1018.45 cm**-1
    24:    1031.83 cm**-1
    25:    1043.40 cm**-1
    26:    1105.93 cm**-1
    27:    1168.94 cm**-1
    28:    1181.51 cm**-1
    29:    1213.67 cm**-1
    30:    1334.61 cm**-1
    31:    1350.74 cm**-1
    32:    1473.40 cm**-1
    33:    1513.36 cm**-1
    34:    1613.35 cm**-1
    35:    1628.75 cm**-1
    36:    1803.96 cm**-1
    37:    3179.32 cm**-1
    38:    3189.35 cm**-1
    39:    3197.38 cm**-1
    40:    3207.13 cm**-1
    41:    3223.17 cm**-1

IR SPECTRUM
-----------

 Mode   freq       eps      Int      T**2         TX        TY        TZ
       cm**-1   L/(mol*cm) km/mol    a.u.
----------------------------------------------------------------------------
  6:     21.29   0.000057    0.29  0.000842  (-0.000172  0.000242 -0.029016)
  7:    146.18   0.000062    0.31  0.000133  ( 0.000129 -0.000075  0.011516)
  8:    184.35   0.000370    1.87  0.000626  ( 0.021228  0.013260  0.000094)
  9:    307.07   0.008925   45.10  0.009070  ( 0.074305  0.059571  0.000213)
 10:    401.45   0.006210   31.38  0.004827  (-0.042423 -0.055023 -0.000068)
 11:    407.79   0.000002    0.01  0.000002  ( 0.000637  0.001140  0.000047)
 12:    428.76   0.000130    0.66  0.000095  ( 0.000165 -0.000086 -0.009736)
 13:    497.35   0.002989   15.10  0.001875  (-0.029328 -0.031863 -0.000111)
 14:    625.83   0.001450    7.33  0.000723  (-0.023337 -0.013355 -0.000273)
 15:    661.31   0.010501   53.07  0.004955  (-0.002226 -0.001000 -0.070350)
 16:    662.53   0.050694  256.19  0.023878  ( 0.138399  0.068723 -0.000995)
 17:    690.32   0.016362   82.68  0.007396  (-0.000012  0.000026  0.086002)
 18:    792.27   0.007541   38.11  0.002970  (-0.000084  0.000241  0.054501)
 19:    854.73   0.074171  374.83  0.027080  ( 0.143314  0.080875  0.000005)
 20:    855.64   0.000632    3.19  0.000230  (-0.013102 -0.007349 -0.002172)
 21:    968.95   0.000488    2.46  0.000157  (-0.000021  0.000049  0.012532)
 22:   1008.62   0.000006    0.03  0.000002  ( 0.000118 -0.000357 -0.001297)
 23:   1018.45   0.000951    4.81  0.000292  ( 0.017060 -0.000696  0.000006)
 24:   1031.83   0.000008    0.04  0.000002  ( 0.000146  0.000126  0.001554)
 25:   1043.40   0.001380    6.97  0.000413  ( 0.017667 -0.010027 -0.000103)
 26:   1105.93   0.002138   10.81  0.000603  (-0.006965  0.023556 -0.000039)
 27:   1168.94   0.000219    1.11  0.000058  (-0.002680  0.007157  0.000017)
 28:   1181.51   0.030309  153.17  0.008005  (-0.089253 -0.006250 -0.000021)
 29:   1213.67   0.049292  249.10  0.012674  ( 0.110461  0.021733  0.000047)
 30:   1334.61   0.000521    2.63  0.000122  (-0.009816  0.005050  0.000026)
 31:   1350.74   0.004154   20.99  0.000960  (-0.005149 -0.030547  0.000035)
 32:   1473.40   0.007874   39.79  0.001668  ( 0.025309  0.032048  0.000008)
 33:   1513.36   0.000065    0.33  0.000013  ( 0.001371  0.003408  0.000021)
 34:   1613.35   0.003938   19.90  0.000762  ( 0.025612 -0.010281 -0.000006)
 35:   1628.75   0.017933   90.63  0.003436  (-0.054096  0.022573  0.000027)
 36:   1803.96   0.138717  701.02  0.023996  (-0.062760  0.141624  0.000094)
 37:   3179.32   0.000205    1.04  0.000020  (-0.004194  0.001593  0.000040)
 38:   3189.35   0.002042   10.32  0.000200  (-0.004122 -0.013519  0.000063)
 39:   3197.38   0.002673   13.51  0.000261  ( 0.014006 -0.008043  0.000092)
 40:   3207.13   0.001793    9.06  0.000174  (-0.011381 -0.006704  0.000039)
 41:   3223.17   0.000213    1.08  0.000021  ( 0.002950 -0.003452 -0.000009)

--------------------------
THERMOCHEMISTRY AT 298.15K
--------------------------

Temperature         ...   298.15 K
Pressure            ...     1.00 atm
Total Mass          ...   140.57 AMU
Quasi RRHO          ...     True
Cut-Off Frequency   ...     1.00 cm^-1

Throughout the following assumptions are being made:
  (1) The electronic state is orbitally nondegenerate
  (2) There are no thermally accessible electronically excited states
  (3) Hindered rotations indicated by low frequency modes are not
      treated as such but are treated as vibrations and this may
      cause some error
  (4) All equations used are the standard statistical mechanics
      equations for an ideal gas
  (5) All vibrations are strictly harmonic

freq.      21.29  E(vib)   ...       0.56
freq.     146.18  E(vib)   ...       0.41
freq.     184.35  E(vib)   ...       0.37
freq.     307.07  E(vib)   ...       0.26
freq.     401.45  E(vib)   ...       0.19
freq.     407.79  E(vib)   ...       0.19
freq.     428.76  E(vib)   ...       0.18
freq.     497.35  E(vib)   ...       0.14
freq.     625.83  E(vib)   ...       0.09
freq.     661.31  E(vib)   ...       0.08
freq.     662.53  E(vib)   ...       0.08
freq.     690.32  E(vib)   ...       0.07
freq.     792.27  E(vib)   ...       0.05
freq.     854.73  E(vib)   ...       0.04
freq.     855.64  E(vib)   ...       0.04
freq.     968.95  E(vib)   ...       0.03
freq.    1008.62  E(vib)   ...       0.02
freq.    1018.45  E(vib)   ...       0.02
freq.    1031.83  E(vib)   ...       0.02
freq.    1043.40  E(vib)   ...       0.02
freq.    1105.93  E(vib)   ...       0.02
freq.    1168.94  E(vib)   ...       0.01
freq.    1181.51  E(vib)   ...       0.01
freq.    1213.67  E(vib)   ...       0.01
freq.    1334.61  E(vib)   ...       0.01
freq.    1350.74  E(vib)   ...       0.01
freq.    1473.40  E(vib)   ...       0.00
freq.    1513.36  E(vib)   ...       0.00
freq.    1613.35  E(vib)   ...       0.00
freq.    1628.75  E(vib)   ...       0.00
freq.    1803.96  E(vib)   ...       0.00
freq.    3179.32  E(vib)   ...       0.00
freq.    3189.35  E(vib)   ...       0.00
freq.    3197.38  E(vib)   ...       0.00
freq.    3207.13  E(vib)   ...       0.00
freq.    3223.17  E(vib)   ...       0.00

------------
INNER ENERGY
------------

The inner energy is: U= E(el) + E(ZPE) + E(vib) + E(rot) + E(trans)
    E(el)   - is the total energy from the electronic structure calculation
              = E(kin-el) + E(nuc-el) + E(el-el) + E(nuc-nuc)
    E(ZPE)  - the the zero temperature vibrational energy from the frequency calculation
    E(vib)  - the the finite temperature correction to E(ZPE) due to population
              of excited vibrational states
    E(rot)  - is the rotational thermal energy
    E(trans)- is the translational thermal energy

Summary of contributions to the inner energy U:
Electronic energy                ...   -805.12237411 Eh
Zero point energy                ...      0.10022272 Eh      62.89 kcal/mol
Thermal vibrational correction   ...      0.00468000 Eh       2.94 kcal/mol
Thermal rotational correction    ...      0.00141627 Eh       0.89 kcal/mol
Thermal translational correction ...      0.00141627 Eh       0.89 kcal/mol
-----------------------------------------------------------------------
Total thermal energy                   -805.01463884 Eh

Summary of corrections to the electronic energy:
(perhaps to be used in another calculation)
Total thermal correction                  0.00751254 Eh       4.71 kcal/mol
Non-thermal (ZPE) correction              0.10022272 Eh      62.89 kcal/mol
-----------------------------------------------------------------------
Total correction                          0.10773526 Eh      67.60 kcal/mol

--------
ENTHALPY
--------

The enthalpy is H = U + kB*T
                kB is Boltzmann's constant
Total thermal energy              ...   -805.01463884 Eh
Thermal Enthalpy correction       ...      0.00094421 Eh       0.59 kcal/mol
-----------------------------------------------------------------------
Total Enthalpy                    ...   -805.01369464 Eh

Note: Only C1 symmetry has been detected, increase convergence thresholds
      if your molecule has a higher symmetry. Symmetry factor of 1.0 is
      used for the rotational entropy correction.

Note: Rotational entropy computed according to Herzberg
Infrared and Raman Spectra, Chapter V,1, Van Nostrand Reinhold, 1945
Point Group:  C1, Symmetry Number:   1
Rotational constants in cm-1:     0.103979     0.030854     0.023793

Vibrational entropy computed according to the QRRHO of S. Grimme
Chem.Eur.J. 2012 18 9955 using a reference frequency of 100.0 cm-1

-------
ENTROPY
-------

The entropy contributions are T*S = T*(S(el)+S(vib)+S(rot)+S(trans))
     S(el)   - electronic entropy
     S(vib)  - vibrational entropy
     S(rot)  - rotational entropy
     S(trans)- translational entropy
The entropies will be listed as multiplied by the temperature to get
units of energy

Electronic entropy                ...      0.00000000 Eh      0.00 kcal/mol
Vibrational entropy               ...      0.00801461 Eh      5.03 kcal/mol
Rotational entropy                ...      0.01398642 Eh      8.78 kcal/mol
Translational entropy             ...      0.01935352 Eh     12.14 kcal/mol
-----------------------------------------------------------------------
Final entropy term                ...      0.04135455 Eh     25.95 kcal/mol

In case the symmetry of your molecule has not been determined correctly
or in case you have a reason to use a different symmetry number we print
out the resulting rotational entropy values for sn=1,12:

 non-linear molecules -----------------------------------
|  sn= 1 | S(rot)=       0.01398642 Eh      8.78 kcal/mol|
|  sn= 2 | S(rot)=       0.01333196 Eh      8.37 kcal/mol|
|  sn= 3 | S(rot)=       0.01294913 Eh      8.13 kcal/mol|
|  sn= 4 | S(rot)=       0.01267751 Eh      7.96 kcal/mol|
|  sn= 5 | S(rot)=       0.01246682 Eh      7.82 kcal/mol|
|  sn= 6 | S(rot)=       0.01229467 Eh      7.72 kcal/mol|
|  sn= 7 | S(rot)=       0.01214913 Eh      7.62 kcal/mol|
|  sn= 8 | S(rot)=       0.01202305 Eh      7.54 kcal/mol|
|  sn= 9 | S(rot)=       0.01191184 Eh      7.47 kcal/mol|
|  sn=10 | S(rot)=       0.01181236 Eh      7.41 kcal/mol|
|  sn=11 | S(rot)=       0.01172237 Eh      7.36 kcal/mol|
|  sn=12 | S(rot)=       0.01164022 Eh      7.30 kcal/mol|
 linear molecules ---------------------------------------
|  Dinfh | S(rot)=       0.00885548 Eh      5.56 kcal/mol|
|  Cinfv | S(rot)=       0.00950994 Eh      5.97 kcal/mol|
 --------------------------------------------------------

-------------------
GIBBS FREE ENERGY
-------------------

The Gibbs free energy is G = H - T*S

                             ****ORCA TERMINATED NORMALLY****
TOTAL RUN TIME: 0 days 0 hours 19 minutes 46 seconds 657 msec
