                         Program Version 6.0.0  -   RELEASE  -
|  1> !r2SCANh aug-cc-pVTZ d3 TightSCF SlowConv RIJCOSX defgrid2
|  2>
|  3> %pal
|  4> nprocs 4
|  5> end
|  6>
|  7> %scf
|  8> MaxIter 1500
|  9> end
| 10>
| 11> %maxcore 3000
| 12>
| 13> !CPCM
| 14> %cpcm smd true
| 15> SMDsolvent "MeCN"
| 16> surfacetype gepol_ses
| 17> rsolv 2.19
| 18> end
| 19>
| 20> * xyz 0 1
| 21> C          -1.05292788857862     -0.90195039312492     -0.00079244620406
| 22> C           0.25383306266426     -1.38568004993578     -0.00080152214741
| 23> C           0.54028267273191     -2.86138571234637      0.00203288995712
| 24> H          -0.38883857252285     -3.45325509542062     -0.03604059678385
| 25> H           1.09291811063176     -3.16010644297053      0.91112317693211
| 26> H           1.16170282070714     -3.15090864321875     -0.86421399390079
| 27> C           1.30789207458922     -0.46067464080260     -0.00180567347016
| 28> C           1.07324062808844      0.91294695875315     -0.00214657152903
| 29> C           2.20817617786651      1.89865124490654      0.00209849597546
| 30> H           3.18449974454796      1.39049576009947     -0.05807100437114
| 31> H           2.13663406413115      2.59705801641470     -0.85077030664783
| 32> H           2.20331535520643      2.51020555090965      0.92262417706601
| 33> C          -0.25483018407266      1.36349671392215     -0.00225647131416
| 34> C          -1.32705255805093      0.47346516287692     -0.00103317270303
| 35> C          -2.74855528335392      0.96238121268857      0.00245367553351
| 36> H          -3.31064008145775      0.56663508720282     -0.86228812948984
| 37> H          -2.79782100162226      2.06283177128710     -0.03746981852679
| 38> H          -3.28188878628492      0.63396678514828      0.91282151769573
| 39> H          -0.45362964993404      2.44124989130836     -0.00465260761200
| 40> H           2.34086357869234     -0.82683387520777     -0.00378196652349
| 41> H          -1.88684908397918     -1.61312760249038     -0.00182455193637
| 42> *
| 43>
| 44>                          ****END OF INPUT****

CARTESIAN COORDINATES (ANGSTROEM)
---------------------------------
  C     -1.052928   -0.901950   -0.000792
  C      0.253833   -1.385680   -0.000802
  C      0.540283   -2.861386    0.002033
  H     -0.388839   -3.453255   -0.036041
  H      1.092918   -3.160106    0.911123
  H      1.161703   -3.150909   -0.864214
  C      1.307892   -0.460675   -0.001806
  C      1.073241    0.912947   -0.002147
  C      2.208176    1.898651    0.002098
  H      3.184500    1.390496   -0.058071
  H      2.136634    2.597058   -0.850770
  H      2.203315    2.510206    0.922624
  C     -0.254830    1.363497   -0.002256
  C     -1.327053    0.473465   -0.001033
  C     -2.748555    0.962381    0.002454
  H     -3.310640    0.566635   -0.862288
  H     -2.797821    2.062832   -0.037470
  H     -3.281889    0.633967    0.912822
  H     -0.453630    2.441250   -0.004653
  H      2.340864   -0.826834   -0.003782
  H     -1.886849   -1.613128   -0.001825

 Total Charge           Charge          ....    0
 Multiplicity           Mult            ....    1
 Number of Electrons    NEL             ....   66
 Basis Dimension        Dim             ....  690

ORBITAL ENERGIES
----------------

  NO   OCC          E(Eh)            E(eV)
   0   2.0000     -10.166311      -276.6394
   1   2.0000     -10.166295      -276.6390
   2   2.0000     -10.166290      -276.6388
   3   2.0000     -10.147340      -276.1232
   4   2.0000     -10.147330      -276.1229
   5   2.0000     -10.147310      -276.1223
   6   2.0000     -10.145481      -276.0726
   7   2.0000     -10.145479      -276.0725
   8   2.0000     -10.145469      -276.0722
   9   2.0000      -0.859960       -23.4007
  10   2.0000      -0.776540       -21.1307
  11   2.0000      -0.776535       -21.1306
  12   2.0000      -0.690400       -18.7867
  13   2.0000      -0.670354       -18.2413
  14   2.0000      -0.670298       -18.2397
  15   2.0000      -0.561755       -15.2861
  16   2.0000      -0.561745       -15.2859
  17   2.0000      -0.481846       -13.1117
  18   2.0000      -0.464378       -12.6364
  19   2.0000      -0.417498       -11.3607
  20   2.0000      -0.415220       -11.2987
  21   2.0000      -0.395792       -10.7701
  22   2.0000      -0.395775       -10.7696
  23   2.0000      -0.387605       -10.5473
  24   2.0000      -0.387565       -10.5462
  25   2.0000      -0.374768       -10.1979
  26   2.0000      -0.374728       -10.1969
  27   2.0000      -0.344055        -9.3622
  28   2.0000      -0.325028        -8.8445
  29   2.0000      -0.317157        -8.6303
  30   2.0000      -0.317141        -8.6299
  31   2.0000      -0.232950        -6.3389
  32   2.0000      -0.232908        -6.3377
  33   0.0000      -0.018673        -0.5081
  34   0.0000      -0.018619        -0.5066
  35   0.0000       0.010256         0.2791
  36   0.0000       0.025214         0.6861
  37   0.0000       0.025226         0.6864

MULLIKEN ATOMIC CHARGES
-----------------------
   0 C :   -1.136340
   1 C :    1.456638
   2 C :   -0.759086
   3 H :    0.182233
   4 H :    0.212389
   5 H :    0.198461
   6 C :   -1.159996
   7 C :    1.456555
   8 C :   -0.763034
   9 H :    0.182193
  10 H :    0.197492
  11 H :    0.214996
  12 C :   -1.153955
  13 C :    1.455169
  14 C :   -0.756811
  15 H :    0.198803
  16 H :    0.180108
  17 H :    0.210691
  18 H :   -0.130980
  19 H :   -0.146412
  20 H :   -0.139114
Sum of atomic charges:    0.0000000

LOEWDIN ATOMIC CHARGES
----------------------
   0 C :    0.216823
   1 C :   -0.145127
   2 C :    0.574097
   3 H :   -0.170617
   4 H :   -0.155210
   5 H :   -0.156582
   6 C :    0.216815
   7 C :   -0.145125
   8 C :    0.574001
   9 H :   -0.170626
  10 H :   -0.156871
  11 H :   -0.154874
  12 C :    0.216891
  13 C :   -0.145129
  14 C :    0.574064
  15 H :   -0.156626
  16 H :   -0.170522
  17 H :   -0.155222
  18 H :   -0.163408
  19 H :   -0.163401
  20 H :   -0.163350

  Mayer bond orders larger than 0.100000
B(  0-C ,  1-C ) :   0.3399 B(  0-C ,  7-C ) :  -0.3147 B(  0-C , 13-C ) :   0.1148
B(  0-C , 14-C ) :   0.2563 B(  0-C , 18-H ) :   0.1644 B(  0-C , 20-H ) :   1.6374
B(  1-C ,  2-C ) :   0.1152 B(  1-C ,  7-C ) :   0.5716 B(  1-C , 12-C ) :  -0.3282
B(  1-C , 13-C ) :   0.5619 B(  1-C , 18-H ) :  -0.1175 B(  1-C , 19-H ) :  -0.2324
B(  1-C , 20-H ) :  -0.2113 B(  2-C ,  3-H ) :   1.0141 B(  2-C ,  4-H ) :   1.0262
B(  2-C ,  5-H ) :   1.0433 B(  2-C ,  6-C ) :   0.2583 B(  6-C ,  7-C ) :   0.3430
B(  6-C , 13-C ) :  -0.3249 B(  6-C , 19-H ) :   1.6609 B(  6-C , 20-H ) :   0.1625
B(  7-C ,  8-C ) :   0.1032 B(  7-C , 13-C ) :   0.5610 B(  7-C , 18-H ) :  -0.2203
B(  7-C , 19-H ) :  -0.2186 B(  7-C , 20-H ) :  -0.1122 B(  8-C ,  9-H ) :   1.0153
B(  8-C , 10-H ) :   1.0446 B(  8-C , 11-H ) :   1.0250 B(  8-C , 12-C ) :   0.2538
B( 12-C , 13-C ) :   0.3197 B( 12-C , 18-H ) :   1.6359 B( 12-C , 19-H ) :   0.1694
B( 13-C , 14-C ) :   0.1098 B( 13-C , 18-H ) :  -0.2114 B( 13-C , 19-H ) :  -0.1215
B( 13-C , 20-H ) :  -0.2188 B( 14-C , 15-H ) :   1.0430 B( 14-C , 16-H ) :   1.0167
B( 14-C , 17-H ) :   1.0283

Dispersion correction           -0.006490107
FINAL SINGLE POINT ENERGY      -350.107978655578

DIPOLE MOMENT
-------------

Method             : SCF
Type of density    : Electron Density
Multiplicity       :   1
Irrep              :   0
Energy             :  -350.1014885483855323 Eh
Relativity type    :
Basis              : AO
                                X                 Y                 Z
Electronic contribution:     -0.000775641       0.002327914      -0.011390889
Nuclear contribution   :      0.000158820      -0.002916147       0.025698413
                        -----------------------------------------
Total Dipole Moment    :     -0.000616820      -0.000588233       0.014307523
                        -----------------------------------------
Magnitude (a.u.)       :      0.014332889
Magnitude (Debye)      :      0.036431309

Rotational constants in cm-1:             0.058235             0.058222             0.029602
Rotational constants in MHz :          1745.843649          1745.444193           887.453553

                             ****ORCA TERMINATED NORMALLY****
TOTAL RUN TIME: 0 days 0 hours 6 minutes 48 seconds 378 msec
