                         Program Version 6.0.0  -   RELEASE  -
|  1> !PBE0 def2-SV(p) Opt Freq d3 TightSCF SlowConv RIJCOSX defgrid2
|  2>
|  3> %pal
|  4> nprocs 4
|  5> end
|  6>
|  7> %scf
|  8> MaxIter 1500
|  9> end
| 10>
| 11> %maxcore 3000
| 12>
| 13>
| 14>
| 15> * xyz 0 1
| 16> C    -2.2745372   -1.1118475   -0.2023918
| 17> C    -1.2314825    0.0092311   -0.2840017
| 18> N     0.0079080   -0.4766518    0.3013014
| 19> H     0.0390128   -0.2706303    1.2928499
| 20> C     1.2640645   -0.1288510   -0.3318088
| 21> C     1.6493810    1.3572086   -0.2435284
| 22> H     1.6741344    1.6786589    0.7966088
| 23> H     0.9379273    1.9756095   -0.7858818
| 24> H     2.6344838    1.5123997   -0.6767539
| 25> C     2.3633775   -0.9898457    0.2930235
| 26> H     2.0783760   -2.0372263    0.2552704
| 27> H     3.2992178   -0.8577054   -0.2432468
| 28> H     2.5152220   -0.7090490    1.3331032
| 29> H     1.1667685   -0.4004601   -1.3913834
| 30> C    -1.7786868    1.2733913    0.3910674
| 31> H    -1.0586884    2.0866486    0.3485308
| 32> H    -2.0055602    1.0665366    1.4357984
| 33> H    -2.6927358    1.5969955   -0.1011913
| 34> H    -1.0382235    0.2244299   -1.3423291
| 35> H    -1.8924398   -2.0066429   -0.6850209
| 36> H    -2.4871873   -1.3463463    0.8376158
| 37> H    -3.1974549   -0.8105319   -0.6911360
| 38> *
| 39>
| 40>                          ****END OF INPUT****
 Total Charge           Charge          ....    0
 Multiplicity           Mult            ....    1
 Number of Electrons    NEL             ....   58
Dispersion correction           -0.015921797
FINAL SINGLE POINT ENERGY      -291.829315816819
Dispersion correction             ... done (  0.1 sec)
Dispersion correction           -0.015874701
FINAL SINGLE POINT ENERGY      -291.832153007907
Dispersion correction             ... done (  0.1 sec)
Dispersion correction           -0.015863412
FINAL SINGLE POINT ENERGY      -291.832366856318
Dispersion correction             ... done (  0.1 sec)
FINAL SINGLE POINT ENERGY      -291.832465090468
Dispersion correction             ... done (  0.1 sec)
Dispersion correction           -0.015875156
FINAL SINGLE POINT ENERGY      -291.832475984774
Dispersion correction             ... done (  0.1 sec)
Dispersion correction           -0.015878503
FINAL SINGLE POINT ENERGY      -291.832479798155
Dispersion correction             ... done (  0.1 sec)
                    ***********************HURRAY********************

CARTESIAN COORDINATES (ANGSTROEM)
---------------------------------
  C     -2.289436   -1.082854   -0.272160
  C     -1.228620    0.015861   -0.256015
  N      0.006611   -0.502126    0.313542
  H      0.044485   -0.343746    1.319928
  C      1.267614   -0.160506   -0.316411
  C      1.612277    1.332487   -0.338042
  H      1.678486    1.730942    0.691590
  H      0.851055    1.918056   -0.881427
  H      2.583581    1.510681   -0.833648
  C      2.376257   -0.964480    0.351076
  H      2.133326   -2.039581    0.332682
  H      3.346224   -0.806702   -0.150629
  H      2.495376   -0.659464    1.408199
  H      1.192955   -0.502310   -1.367019
  C     -1.750920    1.263935    0.458044
  H     -1.010773    2.081203    0.446608
  H     -1.980900    1.029837    1.514864
  H     -2.681290    1.637123   -0.005683
  H     -1.007145    0.285721   -1.305714
  H     -1.915260   -1.964526   -0.818004
  H     -2.523242   -1.403428    0.759574
  H     -3.227785   -0.740803   -0.744859

 Multiplicity           Mult            ....    1
 Number of Electrons    NEL             ....   58
 Basis Dimension        Dim             ....  128

ORBITAL ENERGIES
----------------

  NO   OCC          E(Eh)            E(eV)
   0   2.0000     -14.358715      -390.7205
   1   2.0000     -10.254414      -279.0368
   2   2.0000     -10.253970      -279.0247
   3   2.0000     -10.215277      -277.9718
   4   2.0000     -10.213037      -277.9109
   5   2.0000     -10.212685      -277.9013
   6   2.0000     -10.206980      -277.7461
   7   2.0000      -0.922673       -25.1072
   8   2.0000      -0.801888       -21.8205
   9   2.0000      -0.739061       -20.1109
  10   2.0000      -0.696007       -18.9393
  11   2.0000      -0.689472       -18.7615
  12   2.0000      -0.595324       -16.1996
  13   2.0000      -0.592768       -16.1300
  14   2.0000      -0.492668       -13.4062
  15   2.0000      -0.480114       -13.0646
  16   2.0000      -0.448804       -12.2126
  17   2.0000      -0.434729       -11.8296
  18   2.0000      -0.434018       -11.8102
  19   2.0000      -0.411401       -11.1948
  20   2.0000      -0.398748       -10.8505
  21   2.0000      -0.391520       -10.6538
  22   2.0000      -0.390034       -10.6134
  23   2.0000      -0.362907        -9.8752
  24   2.0000      -0.359371        -9.7790
  25   2.0000      -0.341433        -9.2909
  26   2.0000      -0.339187        -9.2298
  27   2.0000      -0.334389        -9.0992
  28   2.0000      -0.218809        -5.9541
  29   0.0000       0.062408         1.6982
  30   0.0000       0.083414         2.2698
  31   0.0000       0.087070         2.3693
  32   0.0000       0.107525         2.9259
  33   0.0000       0.124178         3.3791

MULLIKEN ATOMIC CHARGES
-----------------------
   0 C :   -0.276423
   1 C :   -0.101535
   2 N :   -0.407522
   3 H :    0.213758
   4 C :   -0.102712
   5 C :   -0.319683
   6 H :    0.109133
   7 H :    0.134566
   8 H :    0.118835
   9 C :   -0.313025
  10 H :    0.133575
  11 H :    0.122304
  12 H :    0.110243
  13 H :    0.101610
  14 C :   -0.336138
  15 H :    0.130355
  16 H :    0.114012
  17 H :    0.122168
  18 H :    0.101889
  19 H :    0.124220
  20 H :    0.108345
  21 H :    0.112028
Sum of atomic charges:   -0.0000000

LOEWDIN ATOMIC CHARGES
----------------------
   0 C :   -0.339933
   1 C :   -0.102791
   2 N :   -0.266133
   3 H :    0.210009
   4 C :   -0.103551
   5 C :   -0.355972
   6 H :    0.114898
   7 H :    0.118094
   8 H :    0.120569
   9 C :   -0.339747
  10 H :    0.124842
  11 H :    0.120901
  12 H :    0.114891
  13 H :    0.112359
  14 C :   -0.351013
  15 H :    0.118571
  16 H :    0.116289
  17 H :    0.121776
  18 H :    0.113231
  19 H :    0.121661
  20 H :    0.116226
  21 H :    0.114823

  Mayer bond orders larger than 0.100000
B(  0-C ,  1-C ) :   1.0882 B(  0-C , 19-H ) :   0.9519 B(  0-C , 20-H ) :   0.9482
B(  0-C , 21-H ) :   0.9486 B(  1-C ,  2-N ) :   1.0033 B(  1-C , 14-C ) :   1.0903
B(  1-C , 18-H ) :   0.9132 B(  2-N ,  3-H ) :   0.8740 B(  2-N ,  4-C ) :   1.0377
B(  4-C ,  5-C ) :   1.0611 B(  4-C ,  9-C ) :   1.0994 B(  4-C , 13-H ) :   0.9159
B(  5-C ,  6-H ) :   0.9435 B(  5-C ,  7-H ) :   0.9415 B(  5-C ,  8-H ) :   0.9433
B(  9-C , 10-H ) :   0.9494 B(  9-C , 11-H ) :   0.9520 B(  9-C , 12-H ) :   0.9477
B( 14-C , 15-H ) :   0.9457 B( 14-C , 16-H ) :   0.9437 B( 14-C , 17-H ) :   0.9470

Dispersion correction           -0.015879493
FINAL SINGLE POINT ENERGY      -291.832480481679

DIPOLE MOMENT
-------------

Method             : SCF
Type of density    : Electron Density
Multiplicity       :   1
Irrep              :   0
Energy             :  -291.8166009887719952 Eh
Relativity type    :
Basis              : AO
                                X                 Y                 Z
Electronic contribution:      0.060228465      -1.370706871      -0.252619321
Nuclear contribution   :     -0.008091156       1.682730653       0.307275943
                        -----------------------------------------
Total Dipole Moment    :      0.052137309       0.312023782       0.054656622
                        -----------------------------------------
Magnitude (a.u.)       :      0.321036580
Magnitude (Debye)      :      0.816010138

VIBRATIONAL FREQUENCIES
-----------------------

Scaling factor for frequencies =  1.000000000  (already applied!)

     0:       0.00 cm**-1
     1:       0.00 cm**-1
     2:       0.00 cm**-1
     3:       0.00 cm**-1
     4:       0.00 cm**-1
     5:       0.00 cm**-1
     6:      55.98 cm**-1
     7:      89.17 cm**-1
     8:     189.05 cm**-1
     9:     235.84 cm**-1
    10:     249.13 cm**-1
    11:     274.84 cm**-1
    12:     289.94 cm**-1
    13:     323.49 cm**-1
    14:     348.42 cm**-1
    15:     395.63 cm**-1
    16:     430.29 cm**-1
    17:     480.40 cm**-1
    18:     508.37 cm**-1
    19:     670.29 cm**-1
    20:     853.44 cm**-1
    21:     870.03 cm**-1
    22:     926.79 cm**-1
    23:     928.00 cm**-1
    24:     946.96 cm**-1
    25:     948.62 cm**-1
    26:     962.06 cm**-1
    27:    1048.69 cm**-1
    28:    1145.79 cm**-1
    29:    1153.49 cm**-1
    30:    1165.92 cm**-1
    31:    1207.23 cm**-1
    32:    1230.18 cm**-1
    33:    1255.26 cm**-1
    34:    1327.23 cm**-1
    35:    1346.96 cm**-1
    36:    1360.37 cm**-1
    37:    1394.11 cm**-1
    38:    1394.51 cm**-1
    39:    1400.55 cm**-1
    40:    1407.12 cm**-1
    41:    1417.99 cm**-1
    42:    1465.67 cm**-1
    43:    1468.20 cm**-1
    44:    1470.77 cm**-1
    45:    1472.39 cm**-1
    46:    1475.63 cm**-1
    47:    1486.26 cm**-1
    48:    1492.48 cm**-1
    49:    1495.47 cm**-1
    50:    1527.49 cm**-1
    51:    3025.66 cm**-1
    52:    3027.05 cm**-1
    53:    3027.40 cm**-1
    54:    3032.64 cm**-1
    55:    3033.16 cm**-1
    56:    3046.39 cm**-1
    57:    3112.36 cm**-1
    58:    3113.57 cm**-1
    59:    3120.66 cm**-1
    60:    3121.70 cm**-1
    61:    3129.66 cm**-1
    62:    3141.74 cm**-1
    63:    3143.20 cm**-1
    64:    3148.44 cm**-1
    65:    3503.33 cm**-1

IR SPECTRUM
-----------

 Mode   freq       eps      Int      T**2         TX        TY        TZ
       cm**-1   L/(mol*cm) km/mol    a.u.
----------------------------------------------------------------------------
  6:     55.98   0.000042    0.21  0.000234  (-0.005842 -0.013300  0.004796)
  7:     89.17   0.000120    0.60  0.000419  (-0.007335  0.008376 -0.017172)
  8:    189.05   0.000329    1.66  0.000543  ( 0.001079  0.021100 -0.009843)
  9:    235.84   0.000008    0.04  0.000010  ( 0.000444 -0.002729  0.001650)
 10:    249.13   0.000007    0.04  0.000009  ( 0.002984  0.000413  0.000308)
 11:    274.84   0.000128    0.65  0.000145  (-0.004097 -0.009550  0.006117)
 12:    289.94   0.000034    0.17  0.000036  ( 0.004884  0.002804 -0.002106)
 13:    323.49   0.000007    0.04  0.000007  (-0.001429  0.000411  0.002174)
 14:    348.42   0.000300    1.52  0.000269  ( 0.009476 -0.007439  0.011131)
 15:    395.63   0.000132    0.67  0.000104  ( 0.008433 -0.000905  0.005654)
 16:    430.29   0.002241   11.32  0.001625  (-0.003291  0.033183 -0.022650)
 17:    480.40   0.000355    1.79  0.000231  ( 0.002883  0.014340 -0.004081)
 18:    508.37   0.000195    0.99  0.000120  ( 0.003711 -0.006790 -0.007751)
 19:    670.29   0.016976   85.79  0.007903  (-0.001281  0.084981 -0.026080)
 20:    853.44   0.001614    8.16  0.000590  ( 0.002860 -0.019822  0.013751)
 21:    870.03   0.000102    0.52  0.000037  ( 0.003423  0.003607 -0.003468)
 22:    926.79   0.000179    0.90  0.000060  (-0.007258  0.001723 -0.002127)
 23:    928.00   0.000327    1.65  0.000110  ( 0.001887 -0.010299  0.000484)
 24:    946.96   0.000053    0.27  0.000017  (-0.001583 -0.003324  0.001943)
 25:    948.62   0.000056    0.28  0.000018  (-0.003013 -0.002347  0.001964)
 26:    962.06   0.000415    2.10  0.000135  ( 0.001451 -0.008537  0.007727)
 27:   1048.69   0.000266    1.35  0.000079  ( 0.008572 -0.002381  0.000226)
 28:   1145.79   0.001339    6.77  0.000365  (-0.018084 -0.006087 -0.000825)
 29:   1153.49   0.000253    1.28  0.000069  ( 0.007977 -0.001814  0.001257)
 30:   1165.92   0.003928   19.85  0.001051  ( 0.006147 -0.031728 -0.002629)
 31:   1207.23   0.000239    1.21  0.000062  ( 0.002689  0.003581 -0.006454)
 32:   1230.18   0.016816   84.98  0.004266  (-0.064541 -0.009436 -0.003362)
 33:   1255.26   0.003040   15.36  0.000756  ( 0.023599  0.004502 -0.013364)
 34:   1327.23   0.003100   15.67  0.000729  ( 0.025669 -0.007563 -0.003574)
 35:   1346.96   0.001390    7.02  0.000322  ( 0.016111  0.007068  0.003529)
 36:   1360.37   0.001570    7.93  0.000360  ( 0.015323  0.010610 -0.003579)
 37:   1394.11   0.001093    5.52  0.000245  ( 0.003948  0.013479  0.006880)
 38:   1394.51   0.002247   11.36  0.000503  (-0.003528  0.020507 -0.008364)
 39:   1400.55   0.004766   24.09  0.001062  (-0.005092 -0.031548 -0.006385)
 40:   1407.12   0.004795   24.23  0.001063  ( 0.032212  0.004930  0.001237)
 41:   1417.99   0.000987    4.99  0.000217  (-0.007267 -0.002002  0.012668)
 42:   1465.67   0.000387    1.96  0.000082  (-0.008846  0.001192  0.001665)
 43:   1468.20   0.000440    2.22  0.000093  (-0.008107 -0.002296 -0.004743)
 44:   1470.77   0.001556    7.86  0.000330  ( 0.014717 -0.005476 -0.009142)
 45:   1472.39   0.000748    3.78  0.000159  (-0.000621 -0.012045 -0.003622)
 46:   1475.63   0.001709    8.64  0.000361  (-0.016150 -0.003116 -0.009534)
 47:   1486.26   0.001855    9.38  0.000390  ( 0.000967 -0.005014  0.019066)
 48:   1492.48   0.000966    4.88  0.000202  ( 0.000578  0.007218 -0.012228)
 49:   1495.47   0.002769   13.99  0.000578  ( 0.010430  0.000490 -0.021651)
 50:   1527.49   0.007058   35.67  0.001442  (-0.037349  0.006422  0.002373)
 51:   3025.66   0.002116   10.69  0.000218  (-0.001778 -0.012860  0.007049)
 52:   3027.05   0.005013   25.34  0.000517  ( 0.006997 -0.019849 -0.008598)
 53:   3027.40   0.000935    4.73  0.000096  ( 0.006567  0.007245  0.000884)
 54:   3032.64   0.003736   18.88  0.000384  ( 0.018422  0.004738 -0.004752)
 55:   3033.16   0.005793   29.28  0.000596  (-0.014907 -0.006592 -0.018175)
 56:   3046.39   0.004567   23.08  0.000468  ( 0.008022  0.000327 -0.020083)
 57:   3112.36   0.000970    4.90  0.000097  ( 0.002091 -0.007334  0.006253)
 58:   3113.57   0.001252    6.33  0.000125  ( 0.007283  0.003949 -0.007538)
 59:   3120.66   0.007049   35.62  0.000705  ( 0.018823 -0.010977 -0.015170)
 60:   3121.70   0.011395   57.59  0.001139  (-0.004529  0.006800 -0.032748)
 61:   3129.66   0.006672   33.72  0.000665  ( 0.022876 -0.003858  0.011274)
 62:   3141.74   0.002502   12.65  0.000249  ( 0.007024  0.013750  0.003185)
 63:   3143.20   0.004500   22.74  0.000447  ( 0.018645 -0.005806 -0.008087)
 64:   3148.44   0.003273   16.54  0.000324  ( 0.011661  0.013399 -0.002984)
 65:   3503.33   0.000023    0.11  0.000002  (-0.000306 -0.000653 -0.001225)

--------------------------
THERMOCHEMISTRY AT 298.15K
--------------------------

Temperature         ...   298.15 K
Pressure            ...     1.00 atm
Total Mass          ...   101.19 AMU
Quasi RRHO          ...     True
Cut-Off Frequency   ...     1.00 cm^-1

Throughout the following assumptions are being made:
  (1) The electronic state is orbitally nondegenerate
  (2) There are no thermally accessible electronically excited states
  (3) Hindered rotations indicated by low frequency modes are not
      treated as such but are treated as vibrations and this may
      cause some error
  (4) All equations used are the standard statistical mechanics
      equations for an ideal gas
  (5) All vibrations are strictly harmonic

freq.      55.98  E(vib)   ...       0.52
freq.      89.17  E(vib)   ...       0.47
freq.     189.05  E(vib)   ...       0.36
freq.     235.84  E(vib)   ...       0.32
freq.     249.13  E(vib)   ...       0.31
freq.     274.84  E(vib)   ...       0.28
freq.     289.94  E(vib)   ...       0.27
freq.     323.49  E(vib)   ...       0.25
freq.     348.42  E(vib)   ...       0.23
freq.     395.63  E(vib)   ...       0.20
freq.     430.29  E(vib)   ...       0.18
freq.     480.40  E(vib)   ...       0.15
freq.     508.37  E(vib)   ...       0.14
freq.     670.29  E(vib)   ...       0.08
freq.     853.44  E(vib)   ...       0.04
freq.     870.03  E(vib)   ...       0.04
freq.     926.79  E(vib)   ...       0.03
freq.     928.00  E(vib)   ...       0.03
freq.     946.96  E(vib)   ...       0.03
freq.     948.62  E(vib)   ...       0.03
freq.     962.06  E(vib)   ...       0.03
freq.    1048.69  E(vib)   ...       0.02
freq.    1145.79  E(vib)   ...       0.01
freq.    1153.49  E(vib)   ...       0.01
freq.    1165.92  E(vib)   ...       0.01
freq.    1207.23  E(vib)   ...       0.01
freq.    1230.18  E(vib)   ...       0.01
freq.    1255.26  E(vib)   ...       0.01
freq.    1327.23  E(vib)   ...       0.01
freq.    1346.96  E(vib)   ...       0.01
freq.    1360.37  E(vib)   ...       0.01
freq.    1394.11  E(vib)   ...       0.00
freq.    1394.51  E(vib)   ...       0.00
freq.    1400.55  E(vib)   ...       0.00
freq.    1407.12  E(vib)   ...       0.00
freq.    1417.99  E(vib)   ...       0.00
freq.    1465.67  E(vib)   ...       0.00
freq.    1468.20  E(vib)   ...       0.00
freq.    1470.77  E(vib)   ...       0.00
freq.    1472.39  E(vib)   ...       0.00
freq.    1475.63  E(vib)   ...       0.00
freq.    1486.26  E(vib)   ...       0.00
freq.    1492.48  E(vib)   ...       0.00
freq.    1495.47  E(vib)   ...       0.00
freq.    1527.49  E(vib)   ...       0.00
freq.    3025.66  E(vib)   ...       0.00
freq.    3027.05  E(vib)   ...       0.00
freq.    3027.40  E(vib)   ...       0.00
freq.    3032.64  E(vib)   ...       0.00
freq.    3033.16  E(vib)   ...       0.00
freq.    3046.39  E(vib)   ...       0.00
freq.    3112.36  E(vib)   ...       0.00
freq.    3113.57  E(vib)   ...       0.00
freq.    3120.66  E(vib)   ...       0.00
freq.    3121.70  E(vib)   ...       0.00
freq.    3129.66  E(vib)   ...       0.00
freq.    3141.74  E(vib)   ...       0.00
freq.    3143.20  E(vib)   ...       0.00
freq.    3148.44  E(vib)   ...       0.00
freq.    3503.33  E(vib)   ...       0.00

------------
INNER ENERGY
------------

The inner energy is: U= E(el) + E(ZPE) + E(vib) + E(rot) + E(trans)
    E(el)   - is the total energy from the electronic structure calculation
              = E(kin-el) + E(nuc-el) + E(el-el) + E(nuc-nuc)
    E(ZPE)  - the the zero temperature vibrational energy from the frequency calculation
    E(vib)  - the the finite temperature correction to E(ZPE) due to population
              of excited vibrational states
    E(rot)  - is the rotational thermal energy
    E(trans)- is the translational thermal energy

Summary of contributions to the inner energy U:
Electronic energy                ...   -291.83248048 Eh
Zero point energy                ...      0.20574912 Eh     129.11 kcal/mol
Thermal vibrational correction   ...      0.00657001 Eh       4.12 kcal/mol
Thermal rotational correction    ...      0.00141627 Eh       0.89 kcal/mol
Thermal translational correction ...      0.00141627 Eh       0.89 kcal/mol
-----------------------------------------------------------------------
Total thermal energy                   -291.61732881 Eh

Summary of corrections to the electronic energy:
(perhaps to be used in another calculation)
Total thermal correction                  0.00940255 Eh       5.90 kcal/mol
Non-thermal (ZPE) correction              0.20574912 Eh     129.11 kcal/mol
-----------------------------------------------------------------------
Total correction                          0.21515168 Eh     135.01 kcal/mol

--------
ENTHALPY
--------

The enthalpy is H = U + kB*T
                kB is Boltzmann's constant
Total thermal energy              ...   -291.61732881 Eh
Thermal Enthalpy correction       ...      0.00094421 Eh       0.59 kcal/mol
-----------------------------------------------------------------------
Total Enthalpy                    ...   -291.61638460 Eh

Note: Only C1 symmetry has been detected, increase convergence thresholds
      if your molecule has a higher symmetry. Symmetry factor of 1.0 is
      used for the rotational entropy correction.

Note: Rotational entropy computed according to Herzberg
Infrared and Raman Spectra, Chapter V,1, Van Nostrand Reinhold, 1945
Point Group:  C1, Symmetry Number:   1
Rotational constants in cm-1:     0.137775     0.051485     0.041834

Vibrational entropy computed according to the QRRHO of S. Grimme
Chem.Eur.J. 2012 18 9955 using a reference frequency of 100.0 cm-1

-------
ENTROPY
-------

The entropy contributions are T*S = T*(S(el)+S(vib)+S(rot)+S(trans))
     S(el)   - electronic entropy
     S(vib)  - vibrational entropy
     S(rot)  - rotational entropy
     S(trans)- translational entropy
The entropies will be listed as multiplied by the temperature to get
units of energy

Electronic entropy                ...      0.00000000 Eh      0.00 kcal/mol
Vibrational entropy               ...      0.01101006 Eh      6.91 kcal/mol
Rotational entropy                ...      0.01334544 Eh      8.37 kcal/mol
Translational entropy             ...      0.01888804 Eh     11.85 kcal/mol
-----------------------------------------------------------------------
Final entropy term                ...      0.04324353 Eh     27.14 kcal/mol

In case the symmetry of your molecule has not been determined correctly
or in case you have a reason to use a different symmetry number we print
out the resulting rotational entropy values for sn=1,12:

 non-linear molecules -----------------------------------

                             ****ORCA TERMINATED NORMALLY****
TOTAL RUN TIME: 0 days 0 hours 7 minutes 54 seconds 399 msec
