                         Program Version 6.0.0  -   RELEASE  -
|  1> !r2SCAN aug-cc-pVTZ d3 TightSCF SlowConv RIJCOSX defgrid2
|  2>
|  3> %pal
|  4> nprocs 4
|  5> end
|  6>
|  7> %scf
|  8> MaxIter 1500
|  9> end
| 10>
| 11> %maxcore 3000
| 12>
| 13> !CPCM
| 14> %cpcm smd true
| 15> SMDsolvent "MeCN"
| 16> surfacetype gepol_ses
| 17> rsolv 2.19
| 18> end
| 19>
| 20> * xyz -1 2
| 21> C          -1.37883091856119     -1.21517375011549     -0.00008867448001
| 22> C           0.00729805129085     -1.22295651486138     -0.00028940061097
| 23> C           0.72993387220770     -0.00000590382604     -0.00030312643494
| 24> C           0.00732184530524      1.22296016475999     -0.00010449796565
| 25> C          -1.37880870032056      1.21520147102756      0.00009142728977
| 26> C          -2.06946528458053      0.00001961491822      0.00010470343428
| 27> F          -3.42567015063122      0.00002957691106      0.00031309610633
| 28> H          -1.94941667505959      2.14990360317295      0.00023681861010
| 29> H           0.58443906920603      2.14816924945391     -0.00012002348132
| 30> N           2.11808314940451     -0.00002527989961     -0.00036226373716
| 31> O           2.72387695234489     -1.10771207139848      0.00040597823570
| 32> O           2.72391644246942      1.10763885175707      0.00056138155342
| 33> H           0.58439912932837     -2.14817284604861     -0.00044313878677
| 34> H          -1.94945738240393     -2.14986566585114     -0.00007967973278
| 35> *
| 36>
| 37>                          ****END OF INPUT****

CARTESIAN COORDINATES (ANGSTROEM)
---------------------------------
  C     -1.378831   -1.215174   -0.000089
  C      0.007298   -1.222957   -0.000289
  C      0.729934   -0.000006   -0.000303
  C      0.007322    1.222960   -0.000104
  C     -1.378809    1.215201    0.000091
  C     -2.069465    0.000020    0.000105
  F     -3.425670    0.000030    0.000313
  H     -1.949417    2.149904    0.000237
  H      0.584439    2.148169   -0.000120
  N      2.118083   -0.000025   -0.000362
  O      2.723877   -1.107712    0.000406
  O      2.723916    1.107639    0.000561
  H      0.584399   -2.148173   -0.000443
  H     -1.949457   -2.149866   -0.000080

 Total Charge           Charge          ....   -1
 Multiplicity           Mult            ....    2
 Number of Electrons    NEL             ....   73
 Basis Dimension        Dim             ....  552

ORBITAL ENERGIES
----------------
                 SPIN UP ORBITALS
  NO   OCC          E(Eh)            E(eV)
   0   1.0000     -24.498344      -666.6338
   1   1.0000     -18.906487      -514.4717
   2   1.0000     -18.906475      -514.4713
   3   1.0000     -14.293346      -388.9417
   4   1.0000     -10.106099      -275.0009
   5   1.0000     -10.054504      -273.5970
   6   1.0000     -10.035519      -273.0804
   7   1.0000     -10.035517      -273.0803
   8   1.0000     -10.032669      -273.0028
   9   1.0000     -10.032661      -273.0026
  10   1.0000      -1.180154       -32.1136
  11   1.0000      -1.095162       -29.8009
  12   1.0000      -0.924544       -25.1581
  13   1.0000      -0.819406       -22.2972
  14   1.0000      -0.738584       -20.0979
  15   1.0000      -0.711562       -19.3626
  16   1.0000      -0.635538       -17.2939
  17   1.0000      -0.576003       -15.6738
  18   1.0000      -0.535264       -14.5653
  19   1.0000      -0.500669       -13.6239
  20   1.0000      -0.460979       -12.5439
  21   1.0000      -0.449276       -12.2254
  22   1.0000      -0.440159       -11.9773
  23   1.0000      -0.425947       -11.5906
  24   1.0000      -0.405947       -11.0464
  25   1.0000      -0.400976       -10.9111
  26   1.0000      -0.383116       -10.4251
  27   1.0000      -0.366428        -9.9710
  28   1.0000      -0.351804        -9.5731
  29   1.0000      -0.324750        -8.8369
  30   1.0000      -0.294917        -8.0251
  31   1.0000      -0.242800        -6.6069
  32   1.0000      -0.229803        -6.2532
  33   1.0000      -0.222476        -6.0539
  34   1.0000      -0.221354        -6.0233
  35   1.0000      -0.192958        -5.2506
  36   1.0000      -0.097236        -2.6459
  37   0.0000      -0.033846        -0.9210
  38   0.0000       0.003632         0.0988
  39   0.0000       0.007800         0.2123
  40   0.0000       0.022701         0.6177
  41   0.0000       0.025189         0.6854

                 SPIN DOWN ORBITALS
  NO   OCC          E(Eh)            E(eV)
   0   1.0000     -24.497444      -666.6093
   1   1.0000     -18.900536      -514.3097
   2   1.0000     -18.900523      -514.3094
   3   1.0000     -14.284694      -388.7063
   4   1.0000     -10.102098      -274.8921
   5   1.0000     -10.054569      -273.5987
   6   1.0000     -10.037061      -273.1223
   7   1.0000     -10.037057      -273.1222
   8   1.0000     -10.029994      -272.9300
   9   1.0000     -10.029987      -272.9298
  10   1.0000      -1.178494       -32.0685
  11   1.0000      -1.084372       -29.5073
  12   1.0000      -0.916025       -24.9263
  13   1.0000      -0.816344       -22.2139
  14   1.0000      -0.732146       -19.9227
  15   1.0000      -0.709554       -19.3079
  16   1.0000      -0.624696       -16.9988
  17   1.0000      -0.574040       -15.6204
  18   1.0000      -0.531811       -14.4713
  19   1.0000      -0.499249       -13.5853
  20   1.0000      -0.454199       -12.3594
  21   1.0000      -0.447631       -12.1806
  22   1.0000      -0.420183       -11.4338
  23   1.0000      -0.406201       -11.0533
  24   1.0000      -0.400348       -10.8940
  25   1.0000      -0.399802       -10.8792
  26   1.0000      -0.382714       -10.4142
  27   1.0000      -0.364457        -9.9174
  28   1.0000      -0.350831        -9.5466
  29   1.0000      -0.316466        -8.6115
  30   1.0000      -0.294037        -8.0011
  31   1.0000      -0.234692        -6.3863
  32   1.0000      -0.216287        -5.8855
  33   1.0000      -0.211308        -5.7500
  34   1.0000      -0.203580        -5.5397
  35   1.0000      -0.187595        -5.1047
  36   0.0000      -0.059732        -1.6254
  37   0.0000      -0.028246        -0.7686
  38   0.0000       0.009881         0.2689
  39   0.0000       0.024185         0.6581
  40   0.0000       0.026714         0.7269

MULLIKEN ATOMIC CHARGES AND SPIN POPULATIONS
--------------------------------------------
   0 C :   -0.612543   -0.146522
   1 C :   -0.438822    0.241887
   2 C :    0.295979   -0.099070
   3 C :   -0.438841    0.241885
   4 C :   -0.612548   -0.146521
   5 C :    0.632146    0.254212
   6 F :   -0.491298    0.018245
   7 H :    0.311740   -0.002699
   8 H :    0.579058   -0.006559
   9 N :    0.629829    0.213162
  10 O :   -0.872758    0.220620
  11 O :   -0.872759    0.220621
  12 H :    0.579074   -0.006561
  13 H :    0.311743   -0.002700
Sum of atomic charges         :   -1.0000000

LOEWDIN ATOMIC CHARGES AND SPIN POPULATIONS
-------------------------------------------
   0 C :    0.149447    0.007784
   1 C :    0.154172    0.072484
   2 C :   -0.334969    0.062691
   3 C :    0.154174    0.072484
   4 C :    0.149446    0.007784
   5 C :   -0.561077    0.094461
   6 F :    0.497637    0.031968
   7 H :   -0.181619   -0.007099
   8 H :   -0.221499    0.018246
   9 N :   -0.870054    0.238228
  10 O :    0.233733    0.194911
  11 O :    0.233731    0.194912
  12 H :   -0.221505    0.018246
  13 H :   -0.181618   -0.007099

  Mayer bond orders larger than 0.100000
B(  0-C ,  1-C ) :   1.2174 B(  0-C ,  2-C ) :  -0.3444 B(  0-C ,  4-C ) :   0.1466
B(  0-C ,  5-C ) :   1.2532 B(  0-C ,  6-F ) :   0.1705 B(  0-C , 12-H ) :   0.1030
B(  0-C , 13-H ) :   0.7302 B(  1-C ,  2-C ) :   0.8172 B(  1-C ,  3-C ) :   0.2468
B(  1-C ,  9-N ) :  -0.2714 B(  1-C , 12-H ) :   0.2403 B(  2-C ,  3-C ) :   0.8172
B(  2-C ,  4-C ) :  -0.3444 B(  2-C ,  9-N ) :   1.3178 B(  2-C , 10-O ) :   0.3449
B(  2-C , 11-O ) :   0.3449 B(  3-C ,  4-C ) :   1.2174 B(  3-C ,  8-H ) :   0.2403
B(  3-C ,  9-N ) :  -0.2714 B(  4-C ,  5-C ) :   1.2532 B(  4-C ,  6-F ) :   0.1705
B(  4-C ,  7-H ) :   0.7302 B(  4-C ,  8-H ) :   0.1030 B(  5-C ,  6-F ) :   0.1404
B(  6-F ,  7-H ) :   0.1352 B(  6-F , 13-H ) :   0.1352 B(  9-N , 10-O ) :   0.8177
B(  9-N , 11-O ) :   0.8177

Dispersion correction           -0.004225289
FINAL SINGLE POINT ENERGY      -536.061603247574

DIPOLE MOMENT
-------------

Method             : SCF
Type of density    : Electron Density
Multiplicity       :   2
Irrep              :   0
Energy             :  -536.0573779587284662 Eh
Relativity type    :
Basis              : AO
                                X                 Y                 Z
Electronic contribution:     -4.363806745       0.000036887      -0.001050671
Nuclear contribution   :      0.705808692       0.000011450      -0.000838371
                        -----------------------------------------
Total Dipole Moment    :     -3.657998053       0.000048337      -0.001889042
                        -----------------------------------------
Magnitude (a.u.)       :      3.657998541
Magnitude (Debye)      :      9.297893376

Rotational constants in cm-1:             0.130395             0.026545             0.022055
Rotational constants in MHz :          3909.135354           795.801666           661.198337

                             ****ORCA TERMINATED NORMALLY****
TOTAL RUN TIME: 0 days 0 hours 3 minutes 45 seconds 20 msec
