                         Program Version 6.0.0  -   RELEASE  -
|  1> !TPSSh aug-cc-pVTZ d3 TightSCF SlowConv RIJCOSX defgrid2
|  2>
|  3> %pal
|  4> nprocs 4
|  5> end
|  6>
|  7> %scf
|  8> MaxIter 1500
|  9> end
| 10>
| 11> %maxcore 3000
| 12>
| 13> !CPCM
| 14> %cpcm smd true
| 15> SMDsolvent "MeCN"
| 16> surfacetype gepol_ses
| 17> rsolv 2.19
| 18> end
| 19>
| 20> * xyz 0 1
| 21> C           0.40935129847802      1.08899379791713      0.00000384882955
| 22> C          -0.95414231914494      1.32182421750193     -0.00005479572869
| 23> C          -1.86191827278499      0.25058964600211     -0.00004533890107
| 24> C          -1.36726530595103     -1.05641439163641      0.00003006046824
| 25> C           0.01094866022683     -1.27206289524966      0.00008922357585
| 26> C           0.93266713804439     -0.21888039966857      0.00007056076766
| 27> C           2.36684587509692     -0.51767487067035      0.00011575273336
| 28> C           3.38823314543713      0.35348849766597     -0.00001970079058
| 29> C           4.83064699015196     -0.03004243326080      0.00003449739731
| 30> H           5.35509581894080      0.37601378760975      0.88589322236429
| 31> H           5.35507929274862      0.37569721298307     -0.88597947614651
| 32> H           4.95899131799363     -1.12576664862183      0.00022846182052
| 33> H           3.17744825013090      1.43140986160214     -0.00019422021756
| 34> H           2.61115235789035     -1.58907062561958      0.00027211184136
| 35> H           0.38207444452641     -2.30220823516234      0.00014522513242
| 36> H          -2.04052486898389     -1.91563792247486      0.00004498692024
| 37> O          -3.17027495143014      0.57656429320608     -0.00011215197676
| 38> C          -4.11930600301544     -0.44976592613539     -0.00015689920679
| 39> H          -4.03333715560747     -1.08818765451818      0.90051262849554
| 40> H          -4.03319357489107     -1.08823722923544     -0.90077688540648
| 41> H          -5.10638730092634      0.03650069307204     -0.00024757936562
| 42> H          -1.35570411969921      2.33832899797413     -0.00010924060884
| 43> H           1.08732328276855      1.94703382671904     -0.00000059199744
| 44> *
| 45>
| 46>                          ****END OF INPUT****

CARTESIAN COORDINATES (ANGSTROEM)
---------------------------------
  C      0.409351    1.088994    0.000004
  C     -0.954142    1.321824   -0.000055
  C     -1.861918    0.250590   -0.000045
  C     -1.367265   -1.056414    0.000030
  C      0.010949   -1.272063    0.000089
  C      0.932667   -0.218880    0.000071
  C      2.366846   -0.517675    0.000116
  C      3.388233    0.353488   -0.000020
  C      4.830647   -0.030042    0.000034
  H      5.355096    0.376014    0.885893
  H      5.355079    0.375697   -0.885979
  H      4.958991   -1.125767    0.000228
  H      3.177448    1.431410   -0.000194
  H      2.611152   -1.589071    0.000272
  H      0.382074   -2.302208    0.000145
  H     -2.040525   -1.915638    0.000045
  O     -3.170275    0.576564   -0.000112
  C     -4.119306   -0.449766   -0.000157
  H     -4.033337   -1.088188    0.900513
  H     -4.033194   -1.088237   -0.900777
  H     -5.106387    0.036501   -0.000248
  H     -1.355704    2.338329   -0.000109
  H      1.087323    1.947034   -0.000001

 Total Charge           Charge          ....    0
 Multiplicity           Mult            ....    1
 Number of Electrons    NEL             ....   80
 Basis Dimension        Dim             ....  782

ORBITAL ENERGIES
----------------

  NO   OCC          E(Eh)            E(eV)
   0   2.0000     -19.087031      -519.3845
   1   2.0000     -10.174496      -276.8621
   2   2.0000     -10.157865      -276.4096
   3   2.0000     -10.119585      -275.3679
   4   2.0000     -10.117624      -275.3145
   5   2.0000     -10.117158      -275.3019
   6   2.0000     -10.114137      -275.2196
   7   2.0000     -10.114120      -275.2192
   8   2.0000     -10.111853      -275.1575
   9   2.0000     -10.110097      -275.1097
  10   2.0000     -10.105819      -274.9933
  11   2.0000      -1.053642       -28.6711
  12   2.0000      -0.837731       -22.7958
  13   2.0000      -0.776696       -21.1350
  14   2.0000      -0.736686       -20.0462
  15   2.0000      -0.726252       -19.7623
  16   2.0000      -0.685487       -18.6530
  17   2.0000      -0.643719       -17.5165
  18   2.0000      -0.593496       -16.1498
  19   2.0000      -0.572300       -15.5731
  20   2.0000      -0.528805       -14.3895
  21   2.0000      -0.513745       -13.9797
  22   2.0000      -0.467251       -12.7145
  23   2.0000      -0.462567       -12.5871
  24   2.0000      -0.448688       -12.2094
  25   2.0000      -0.427267       -11.6265
  26   2.0000      -0.405802       -11.0424
  27   2.0000      -0.400783       -10.9059
  28   2.0000      -0.389425       -10.5968
  29   2.0000      -0.385236       -10.4828
  30   2.0000      -0.377105       -10.2615
  31   2.0000      -0.367602       -10.0030
  32   2.0000      -0.345724        -9.4076
  33   2.0000      -0.332086        -9.0365
  34   2.0000      -0.323075        -8.7913
  35   2.0000      -0.319728        -8.7002
  36   2.0000      -0.304599        -8.2886
  37   2.0000      -0.260082        -7.0772
  38   2.0000      -0.248003        -6.7485
  39   2.0000      -0.194987        -5.3059
  40   0.0000      -0.040957        -1.1145
  41   0.0000      -0.025277        -0.6878
  42   0.0000      -0.003058        -0.0832
  43   0.0000       0.004780         0.1301
  44   0.0000       0.010138         0.2759

MULLIKEN ATOMIC CHARGES
-----------------------
   0 C :   -0.352455
   1 C :   -0.837017
   2 C :    0.978418
   3 C :   -0.324347
   4 C :   -0.524040
   5 C :    1.441507
   6 C :    0.055435
   7 C :   -0.324318
   8 C :   -0.407679
   9 H :    0.121996
  10 H :    0.121377
  11 H :    0.129423
  12 H :    0.100936
  13 H :    0.013348
  14 H :   -0.069515
  15 H :    0.299562
  16 O :   -0.777300
  17 C :   -0.302478
  18 H :    0.216353
  19 H :    0.216779
  20 H :    0.021792
  21 H :    0.357221
  22 H :   -0.154996
Sum of atomic charges:    0.0000000

LOEWDIN ATOMIC CHARGES
----------------------
   0 C :    0.196529
   1 C :    0.203964
   2 C :   -0.405839
   3 C :    0.205275
   4 C :    0.194858
   5 C :   -0.157002
   6 C :    0.191363
   7 C :    0.193220
   8 C :    0.543170
   9 H :   -0.166139
  10 H :   -0.166110
  11 H :   -0.175392
  12 H :   -0.186296
  13 H :   -0.185490
  14 H :   -0.166497
  15 H :   -0.189252
  16 O :    0.594851
  17 C :    0.316692
  18 H :   -0.160706
  19 H :   -0.160738
  20 H :   -0.169124
  21 H :   -0.171234
  22 H :   -0.180102

  Mayer bond orders larger than 0.100000
B(  0-C ,  1-C ) :   1.1975 B(  0-C ,  2-C ) :  -0.2689 B(  0-C ,  3-C ) :  -0.3863
B(  0-C ,  4-C ) :  -0.5892 B(  0-C ,  5-C ) :   0.6293 B(  0-C ,  6-C ) :   0.2878
B(  0-C ,  7-C ) :   0.1661 B(  0-C , 22-H ) :   1.4335 B(  1-C ,  2-C ) :   1.0135
B(  1-C ,  3-C ) :   0.2811 B(  1-C ,  5-C ) :   0.1119 B(  1-C , 16-O ) :   0.4092
B(  1-C , 21-H ) :   0.4043 B(  2-C ,  3-C ) :   1.1625 B(  2-C ,  4-C ) :  -0.3181
B(  2-C , 15-H ) :   0.1914 B(  2-C , 17-C ) :   0.1143 B(  2-C , 21-H ) :   0.1926
B(  3-C ,  4-C ) :   0.9903 B(  3-C ,  5-C ) :   0.1882 B(  3-C , 14-H ) :  -0.1050
B(  3-C , 15-H ) :   0.4901 B(  3-C , 16-O ) :  -0.1466 B(  4-C ,  5-C ) :   0.3542
B(  4-C , 14-H ) :   1.4339 B(  5-C ,  6-C ) :   0.1675 B(  5-C ,  7-C ) :  -0.3161
B(  5-C , 12-H ) :  -0.1313 B(  5-C , 14-H ) :  -0.1064 B(  6-C ,  7-C ) :   1.0852
B(  6-C , 13-H ) :   1.0793 B(  6-C , 14-H ) :  -0.1100 B(  7-C ,  8-C ) :   1.0159
B(  7-C , 11-H ) :   0.1051 B(  7-C , 12-H ) :   1.2113 B(  8-C ,  9-H ) :   0.9842
B(  8-C , 10-H ) :   0.9847 B(  8-C , 11-H ) :   0.9329 B( 14-H , 22-H ) :   0.1861
B( 16-O , 17-C ) :   1.0457 B( 17-C , 18-H ) :   0.9178 B( 17-C , 19-H ) :   0.9174
B( 17-C , 20-H ) :   1.0836

Dispersion correction           -0.026492406
FINAL SINGLE POINT ENERGY      -463.722219696036

DIPOLE MOMENT
-------------

Method             : SCF
Type of density    : Electron Density
Multiplicity       :   1
Irrep              :   0
Energy             :  -463.6957272904904812 Eh
Relativity type    :
Basis              : AO
                                X                 Y                 Z
Electronic contribution:     -6.309029418       1.962388792      -0.000182849
Nuclear contribution   :      5.966707221      -2.452424409      -0.000108664
                        -----------------------------------------
Total Dipole Moment    :     -0.342322197      -0.490035617      -0.000291514
                        -----------------------------------------
Magnitude (a.u.)       :      0.597762057
Magnitude (Debye)      :      1.519390402

Rotational constants in cm-1:             0.150473             0.015230             0.013903
Rotational constants in MHz :          4511.057217           456.578337           416.814518

                             ****ORCA TERMINATED NORMALLY****
TOTAL RUN TIME: 0 days 0 hours 8 minutes 16 seconds 561 msec
