                         Program Version 6.0.0  -   RELEASE  -
|  1> !r2SCANh aug-cc-pVTZ d3 TightSCF SlowConv RIJCOSX defgrid2
|  2>
|  3> %pal
|  4> nprocs 4
|  5> end
|  6>
|  7> %scf
|  8> MaxIter 1500
|  9> end
| 10>
| 11> %maxcore 3000
| 12>
| 13> !CPCM
| 14> %cpcm smd true
| 15> SMDsolvent "MeCN"
| 16> surfacetype gepol_ses
| 17> rsolv 2.19
| 18> end
| 19>
| 20> * xyz -1 2
| 21> C           0.22794298897248     -1.32265639381783      0.00010090294401
| 22> C           1.59543811909498     -1.22519922622522      0.00005920870666
| 23> C           2.24938913290759      0.05051285824288     -0.00006076880347
| 24> C           1.41323843170898      1.21344313185840     -0.00013147831105
| 25> C           0.04476039121495      1.11078484934738     -0.00009132277474
| 26> C          -0.60963123993324     -0.16243960932374      0.00001856177073
| 27> C          -2.03234655015939     -0.32642555516269      0.00004823556518
| 28> O          -2.66249266053587     -1.38070299418175      0.00028693239647
| 29> O          -2.71431442900417      0.87834037288675      0.00017303848078
| 30> C          -4.10409629646245      0.76410388717440      0.00037606736278
| 31> H          -4.47622443606713      0.22239507752821     -0.88993521865745
| 32> H          -4.50472531304601      1.79227894799534      0.00110489591886
| 33> H          -4.47585642501352      0.22119730713171      0.89009526934874
| 34> H          -0.56969461364873      2.01480881708110     -0.00015706084987
| 35> H           1.88675005189144      2.20080747549968     -0.00022323008499
| 36> C           3.65255521641015      0.15685604656258     -0.00011286386991
| 37> N           4.82172741475790      0.24605470544831     -0.00015284690981
| 38> H           2.21001750339424     -2.13142621067461      0.00011344187289
| 39> H          -0.26118628648220     -2.30109838737090      0.00018753589417
| 40> *
| 41>
| 42>                          ****END OF INPUT****

CARTESIAN COORDINATES (ANGSTROEM)
---------------------------------
  C      0.227943   -1.322656    0.000101
  C      1.595438   -1.225199    0.000059
  C      2.249389    0.050513   -0.000061
  C      1.413238    1.213443   -0.000131
  C      0.044760    1.110785   -0.000091
  C     -0.609631   -0.162440    0.000019
  C     -2.032347   -0.326426    0.000048
  O     -2.662493   -1.380703    0.000287
  O     -2.714314    0.878340    0.000173
  C     -4.104096    0.764104    0.000376
  H     -4.476224    0.222395   -0.889935
  H     -4.504725    1.792279    0.001105
  H     -4.475856    0.221197    0.890095
  H     -0.569695    2.014809   -0.000157
  H      1.886750    2.200807   -0.000223
  C      3.652555    0.156856   -0.000113
  N      4.821727    0.246055   -0.000153
  H      2.210018   -2.131426    0.000113
  H     -0.261186   -2.301098    0.000188

 Total Charge           Charge          ....   -1
 Multiplicity           Mult            ....    2
 Number of Electrons    NEL             ....   85
 Basis Dimension        Dim             ....  713

ORBITAL ENERGIES
----------------
                 SPIN UP ORBITALS
  NO   OCC          E(Eh)            E(eV)
   0   1.0000     -19.133318      -520.6440
   1   1.0000     -19.070480      -518.9342
   2   1.0000     -14.282184      -388.6380
   3   1.0000     -10.245192      -278.7858
   4   1.0000     -10.185386      -277.1584
   5   1.0000     -10.181983      -277.0658
   6   1.0000     -10.168727      -276.7051
   7   1.0000     -10.153731      -276.2971
   8   1.0000     -10.153705      -276.2964
   9   1.0000     -10.148264      -276.1483
  10   1.0000     -10.147187      -276.1190
  11   1.0000     -10.144850      -276.0554
  12   1.0000      -1.078463       -29.3465
  13   1.0000      -0.987320       -26.8663
  14   1.0000      -0.892309       -24.2810
  15   1.0000      -0.844706       -22.9856
  16   1.0000      -0.766370       -20.8540
  17   1.0000      -0.737765       -20.0756
  18   1.0000      -0.699135       -19.0244
  19   1.0000      -0.638866       -17.3844
  20   1.0000      -0.584652       -15.9092
  21   1.0000      -0.547111       -14.8876
  22   1.0000      -0.524409       -14.2699
  23   1.0000      -0.496764       -13.5176
  24   1.0000      -0.452604       -12.3160
  25   1.0000      -0.451850       -12.2955
  26   1.0000      -0.423475       -11.5233
  27   1.0000      -0.417092       -11.3497
  28   1.0000      -0.399753       -10.8778
  29   1.0000      -0.396232       -10.7820
  30   1.0000      -0.386279       -10.5112
  31   1.0000      -0.366381        -9.9697
  32   1.0000      -0.365039        -9.9332
  33   1.0000      -0.344939        -9.3863
  34   1.0000      -0.330873        -9.0035
  35   1.0000      -0.323129        -8.7928
  36   1.0000      -0.320368        -8.7177
  37   1.0000      -0.298834        -8.1317
  38   1.0000      -0.274515        -7.4699
  39   1.0000      -0.253237        -6.8909
  40   1.0000      -0.245556        -6.6819
  41   1.0000      -0.244530        -6.6540
  42   1.0000      -0.110450        -3.0055
  43   0.0000      -0.013398        -0.3646
  44   0.0000       0.007946         0.2162
  45   0.0000       0.011145         0.3033
  46   0.0000       0.021294         0.5794
  47   0.0000       0.023673         0.6442

                 SPIN DOWN ORBITALS
  NO   OCC          E(Eh)            E(eV)
   0   1.0000     -19.132294      -520.6162
   1   1.0000     -19.066902      -518.8368
   2   1.0000     -14.277961      -388.5231
   3   1.0000     -10.243465      -278.7388
   4   1.0000     -10.185441      -277.1599
   5   1.0000     -10.182465      -277.0790
   6   1.0000     -10.164389      -276.5871
   7   1.0000     -10.153180      -276.2821
   8   1.0000     -10.153146      -276.2812
   9   1.0000     -10.147428      -276.1255
  10   1.0000     -10.146368      -276.0967
  11   1.0000     -10.140968      -275.9498
  12   1.0000      -1.075638       -29.2696
  13   1.0000      -0.982523       -26.7358
  14   1.0000      -0.886532       -24.1238
  15   1.0000      -0.839397       -22.8411
  16   1.0000      -0.757214       -20.6048
  17   1.0000      -0.733646       -19.9635
  18   1.0000      -0.695584       -18.9278
  19   1.0000      -0.630841       -17.1661
  20   1.0000      -0.584165       -15.8959
  21   1.0000      -0.543659       -14.7937
  22   1.0000      -0.522154       -14.2085
  23   1.0000      -0.494584       -13.4583
  24   1.0000      -0.450457       -12.2576
  25   1.0000      -0.445697       -12.1280
  26   1.0000      -0.421777       -11.4771
  27   1.0000      -0.414465       -11.2782
  28   1.0000      -0.398536       -10.8447
  29   1.0000      -0.395194       -10.7538
  30   1.0000      -0.371638       -10.1128
  31   1.0000      -0.361485        -9.8365
  32   1.0000      -0.351732        -9.5711
  33   1.0000      -0.340748        -9.2722
  34   1.0000      -0.329579        -8.9683
  35   1.0000      -0.319067        -8.6822
  36   1.0000      -0.310365        -8.4455
  37   1.0000      -0.297466        -8.0945
  38   1.0000      -0.265885        -7.2351
  39   1.0000      -0.242386        -6.5957
  40   1.0000      -0.241674        -6.5763
  41   1.0000      -0.220454        -5.9989
  42   0.0000      -0.060553        -1.6477
  43   0.0000      -0.010300        -0.2803
  44   0.0000       0.009387         0.2554
  45   0.0000       0.022253         0.6055
  46   0.0000       0.025127         0.6837

MULLIKEN ATOMIC CHARGES AND SPIN POPULATIONS
--------------------------------------------
   0 C :   -1.221170    0.062622
   1 C :   -1.227743    0.031840
   2 C :    1.795152    0.286402
   3 C :   -1.419526    0.022204
   4 C :   -0.337898    0.053614
   5 C :    2.174094    0.245151
   6 C :    0.667309    0.066865
   7 O :   -0.993298    0.119491
   8 O :   -0.334880    0.031055
   9 C :   -0.651114   -0.004604
  10 H :    0.261150    0.001675
  11 H :    0.240881   -0.001212
  12 H :    0.261416    0.001667
  13 H :    0.036302   -0.006260
  14 H :   -0.026356   -0.002321
  15 C :    0.766116   -0.076648
  16 N :   -0.921149    0.179682
  17 H :   -0.019034   -0.001917
  18 H :   -0.050253   -0.009305
Sum of atomic charges         :   -1.0000000

LOEWDIN ATOMIC CHARGES AND SPIN POPULATIONS
-------------------------------------------
   0 C :    0.153671    0.064777
   1 C :    0.150317    0.061099
   2 C :   -0.262819    0.140325
   3 C :    0.149293    0.061003
   4 C :    0.159371    0.066271
   5 C :   -0.205730    0.145324
   6 C :   -0.892767    0.104905
   7 O :    0.418654    0.100085
   8 O :    0.551960    0.031994
   9 C :    0.263523    0.002207
  10 H :   -0.182770    0.000814
  11 H :   -0.180896   -0.000025
  12 H :   -0.182892    0.000811
  13 H :   -0.201070    0.008148
  14 H :   -0.180853    0.006561
  15 C :   -0.333022    0.062578
  16 N :    0.152655    0.128605
  17 H :   -0.181124    0.006597
  18 H :   -0.195502    0.007922

  Mayer bond orders larger than 0.100000
B(  0-C ,  1-C ) :   1.9323 B(  0-C ,  3-C ) :   0.1689 B(  0-C ,  4-C ) :  -1.0146
B(  0-C ,  5-C ) :  -0.4256 B(  0-C ,  6-C ) :   0.6111 B(  0-C , 15-C ) :  -0.2459
B(  0-C , 18-H ) :   1.5110 B(  1-C ,  2-C ) :  -0.1730 B(  1-C ,  3-C ) :  -0.1927
B(  1-C ,  4-C ) :   0.1036 B(  1-C ,  5-C ) :  -0.2145 B(  1-C ,  6-C ) :  -0.2127
B(  1-C , 13-H ) :  -0.1749 B(  1-C , 14-H ) :   0.1151 B(  1-C , 15-C ) :   0.3941
B(  1-C , 17-H ) :   1.5493 B(  1-C , 18-H ) :   0.1185 B(  2-C ,  3-C ) :  -0.1874
B(  2-C ,  4-C ) :   0.3010 B(  2-C ,  6-C ) :   0.3248 B(  2-C , 14-H ) :  -0.4426
B(  2-C , 15-C ) :   0.7547 B(  2-C , 16-N ) :   0.6314 B(  2-C , 17-H ) :  -0.4158
B(  3-C ,  4-C ) :   1.3791 B(  3-C ,  5-C ) :  -0.1034 B(  3-C , 14-H ) :   1.5986
B(  3-C , 15-C ) :   0.4536 B(  3-C , 17-H ) :   0.1018 B(  3-C , 18-H ) :  -0.2006
B(  4-C ,  6-C ) :   0.3205 B(  4-C , 13-H ) :   1.5419 B(  4-C , 15-C ) :  -0.3159
B(  5-C ,  6-C ) :   0.3332 B(  5-C ,  8-O ) :   0.1518 B(  5-C , 13-H ) :  -0.3415
B(  5-C , 15-C ) :   0.4658 B(  5-C , 17-H ) :  -0.1515 B(  5-C , 18-H ) :  -0.3194
B(  6-C ,  7-O ) :   0.9117 B(  6-C ,  8-O ) :   0.7984 B(  6-C , 13-H ) :  -0.1833
B(  6-C , 15-C ) :   0.2350 B(  7-O , 18-H ) :   0.1614 B(  8-O ,  9-C ) :   0.9266
B(  9-C , 10-H ) :   0.9157 B(  9-C , 11-H ) :   0.9543 B(  9-C , 12-H ) :   0.9151
B( 13-H , 15-C ) :  -0.1088 B( 13-H , 18-H ) :   0.2320 B( 14-H , 17-H ) :   0.1769
B( 15-C , 16-N ) :   1.2374

Dispersion correction           -0.006472665
FINAL SINGLE POINT ENERGY      -552.362103363214

DIPOLE MOMENT
-------------

Method             : SCF
Type of density    : Electron Density
Multiplicity       :   2
Irrep              :   0
Energy             :  -552.3556306985442461 Eh
Relativity type    :
Basis              : AO
                                X                 Y                 Z
Electronic contribution:      6.605264813      -1.041656014      -0.001099314
Nuclear contribution   :     -9.634977547       1.865335493       0.000753927
                        -----------------------------------------
Total Dipole Moment    :     -3.029712734       0.823679479      -0.000345387
                        -----------------------------------------
Magnitude (a.u.)       :      3.139682668
Magnitude (Debye)      :      7.980439126

Rotational constants in cm-1:             0.113906             0.014521             0.012911
Rotational constants in MHz :          3414.805321           435.337364           387.058045

                             ****ORCA TERMINATED NORMALLY****
TOTAL RUN TIME: 0 days 0 hours 9 minutes 11 seconds 488 msec
