                         Program Version 6.0.0  -   RELEASE  -
|  1> !PBE0 def2-SV(p) Opt Freq d3 TightSCF SlowConv RIJCOSX defgrid2
|  2>
|  3> %pal
|  4> nprocs 4
|  5> end
|  6>
|  7> %scf
|  8> MaxIter 1500
|  9> end
| 10>
| 11> %maxcore 3000
| 12>
| 13>
| 14>
| 15> * xyz 1 2
| 16> C     2.1815728   -0.0917839    0.2536966
| 17> C     2.4291298   -0.6800841   -0.9876440
| 18> C     3.7174960   -0.9949302   -1.3397634
| 19> C     4.7911038   -0.7374337   -0.4668197
| 20> C     4.5284855   -0.1457459    0.7771349
| 21> C     3.2361061    0.1732068    1.1294476
| 22> H     3.0360055    0.6338334    2.0841649
| 23> H     5.3277020    0.0699630    1.4666756
| 24> O     5.9981083   -1.0967797   -0.9094349
| 25> C     7.1372418   -0.9165624   -0.0882436
| 26> H     7.0395910   -1.4702683    0.8486785
| 27> H     7.3084187    0.1422507    0.1207816
| 28> H     7.9727475   -1.3139549   -0.6607620
| 29> H     3.9339059   -1.4587522   -2.2882833
| 30> H     1.6213206   -0.8999360   -1.6675768
| 31> S     0.5723832    0.3103303    0.8429630
| 32> S    -0.5721687    0.3117886   -0.8390424
| 33> C    -2.1813962   -0.0913150   -0.2512349
| 34> C    -2.4300212   -0.6803854    0.9895117
| 35> C    -3.7187076   -0.9955686    1.3402828
| 36> C    -4.7914954   -0.7374604    0.4665934
| 37> C    -4.5279270   -0.1449873   -0.7767448
| 38> C    -3.2352931    0.1742830   -1.1276819
| 39> H    -3.0343145    0.6345720   -2.0824268
| 40> H    -5.3265787    0.0706423   -1.4669576
| 41> O    -5.9990604   -1.0967969    0.9081869
| 42> C    -7.1371088   -0.9166311    0.0856651
| 43> H    -7.0373493   -1.4681652   -0.8521253
| 44> H    -7.9729920   -1.3161241    0.6559086
| 45> H    -7.3094233    0.1422917   -0.1214759
| 46> H    -3.9360020   -1.4598018    2.2884124
| 47> H    -1.6228559   -0.9004196    1.6701584
| 48> *
| 49>
| 50>                          ****END OF INPUT****
 Total Charge           Charge          ....    1
 Multiplicity           Mult            ....    2
 Number of Electrons    NEL             ....  145
Dispersion correction           -0.036102794
FINAL SINGLE POINT ENERGY     -1486.651431639785
Dispersion correction             ... done (  0.0 sec)
Dispersion correction           -0.036157554
FINAL SINGLE POINT ENERGY     -1486.655856385227
Dispersion correction             ... done (  0.1 sec)
Dispersion correction           -0.036270156
FINAL SINGLE POINT ENERGY     -1486.656659611429
Dispersion correction             ... done (  0.0 sec)
FINAL SINGLE POINT ENERGY     -1486.656362217855
FINAL SINGLE POINT ENERGY     -1486.656900887416
FINAL SINGLE POINT ENERGY     -1486.656935461973
Dispersion correction             ... done (  0.0 sec)
Dispersion correction           -0.036317135
FINAL SINGLE POINT ENERGY     -1486.656973205810
Dispersion correction             ... done (  0.0 sec)
Dispersion correction           -0.036325296
FINAL SINGLE POINT ENERGY     -1486.656978801506
Dispersion correction             ... done (  0.0 sec)
                    ***********************HURRAY********************

CARTESIAN COORDINATES (ANGSTROEM)
---------------------------------
  C      2.100741   -0.036236    0.337497
  C      2.285283   -1.007523   -0.668455
  C      3.558541   -1.407961   -1.005874
  C      4.682491   -0.866055   -0.342285
  C      4.494105    0.092828    0.674482
  C      3.214436    0.504077    1.004853
  H      3.077239    1.265092    1.778710
  H      5.345041    0.529117    1.199773
  O      5.859571   -1.320092   -0.732631
  C      7.048501   -0.860243   -0.121685
  H      7.055126   -1.097342    0.956773
  H      7.174536    0.226457   -0.272055
  H      7.869489   -1.394750   -0.618079
  H      3.729369   -2.164656   -1.775039
  H      1.423196   -1.451154   -1.173574
  S      0.533108    0.508354    0.879449
  S     -0.532567    0.511573   -0.872987
  C     -2.100504   -0.034561   -0.333766
  C     -2.286148   -1.006541    0.671331
  C     -3.559729   -1.407679    1.006640
  C     -4.682946   -0.865771    0.341767
  C     -4.493451    0.093764   -0.674206
  C     -3.213491    0.505681   -1.002477
  H     -3.075481    1.267185   -1.775713
  H     -5.343798    0.530003   -1.200486
  O     -5.860392   -1.320453    0.730143
  C     -7.048637   -0.860887    0.117608
  H     -7.053497   -1.097499   -0.960962
  H     -7.870104   -1.396021    0.612524
  H     -7.175401    0.225680    0.268302
  H     -3.731377   -2.164953    1.775053
  H     -1.424624   -1.450157    1.177415

 Multiplicity           Mult            ....    2
 Number of Electrons    NEL             ....  145
 Basis Dimension        Dim             ....  288

ORBITAL ENERGIES
----------------
                 SPIN UP ORBITALS
  NO   OCC          E(Eh)            E(eV)
   0   1.0000     -89.209305     -2427.5086
   1   1.0000     -89.209221     -2427.5063
   2   1.0000     -19.380851      -527.3798
   3   1.0000     -19.380710      -527.3759
   4   1.0000     -10.443347      -284.1779
   5   1.0000     -10.443234      -284.1749
   6   1.0000     -10.418414      -283.4995
   7   1.0000     -10.418296      -283.4962
   8   1.0000     -10.392240      -282.7872
   9   1.0000     -10.392158      -282.7850
  10   1.0000     -10.388830      -282.6944
  11   1.0000     -10.388724      -282.6915
  12   1.0000     -10.385737      -282.6103
  13   1.0000     -10.385666      -282.6083
  14   1.0000     -10.373619      -282.2805
  15   1.0000     -10.373523      -282.2779
  16   1.0000     -10.368821      -282.1500
  17   1.0000     -10.368720      -282.1472
  18   1.0000      -8.208537      -223.3656
  19   1.0000      -8.208450      -223.3633
  20   1.0000      -6.150507      -167.3638
  21   1.0000      -6.150282      -167.3577
  22   1.0000      -6.145433      -167.2257
  23   1.0000      -6.145354      -167.2236
  24   1.0000      -6.144190      -167.1919
  25   1.0000      -6.144098      -167.1894
  26   1.0000      -1.234212       -33.5846
  27   1.0000      -1.234084       -33.5811
  28   1.0000      -1.052258       -28.6334
  29   1.0000      -1.027858       -27.9694
  30   1.0000      -0.994528       -27.0625
  31   1.0000      -0.942831       -25.6557
  32   1.0000      -0.914091       -24.8737
  33   1.0000      -0.910927       -24.7876
  34   1.0000      -0.897078       -24.4107
  35   1.0000      -0.871411       -23.7123
  36   1.0000      -0.837277       -22.7835
  37   1.0000      -0.805687       -21.9239
  38   1.0000      -0.771764       -21.0008
  39   1.0000      -0.771014       -20.9804
  40   1.0000      -0.739862       -20.1327
  41   1.0000      -0.725933       -19.7537
  42   1.0000      -0.687128       -18.6977
  43   1.0000      -0.684482       -18.6257
  44   1.0000      -0.656914       -17.8755
  45   1.0000      -0.645649       -17.5690
  46   1.0000      -0.632433       -17.2094
  47   1.0000      -0.622291       -16.9334
  48   1.0000      -0.615476       -16.7480
  49   1.0000      -0.615312       -16.7435
  50   1.0000      -0.597860       -16.2686
  51   1.0000      -0.597038       -16.2462
  52   1.0000      -0.579940       -15.7810
  53   1.0000      -0.579336       -15.7645
  54   1.0000      -0.565232       -15.3807
  55   1.0000      -0.558398       -15.1948
  56   1.0000      -0.556098       -15.1322
  57   1.0000      -0.546021       -14.8580
  58   1.0000      -0.530402       -14.4330
  59   1.0000      -0.526889       -14.3374
  60   1.0000      -0.514528       -14.0010
  61   1.0000      -0.511234       -13.9114
  62   1.0000      -0.501592       -13.6490
  63   1.0000      -0.496405       -13.5079
  64   1.0000      -0.488849       -13.3022
  65   1.0000      -0.467152       -12.7119
  66   1.0000      -0.467046       -12.7090
  67   1.0000      -0.460715       -12.5367
  68   1.0000      -0.422013       -11.4836
  69   1.0000      -0.412057       -11.2126
  70   1.0000      -0.410507       -11.1705
  71   1.0000      -0.369421       -10.0525
  72   1.0000      -0.354800        -9.6546
  73   0.0000      -0.191579        -5.2131
  74   0.0000      -0.147760        -4.0207
  75   0.0000      -0.142654        -3.8818
  76   0.0000      -0.138390        -3.7658
  77   0.0000      -0.123973        -3.3735

                 SPIN DOWN ORBITALS
  NO   OCC          E(Eh)            E(eV)
   0   1.0000     -89.207521     -2427.4601
   1   1.0000     -89.207443     -2427.4579
   2   1.0000     -19.379137      -527.3331
   3   1.0000     -19.379005      -527.3295
   4   1.0000     -10.442217      -284.1472
   5   1.0000     -10.442111      -284.1443
   6   1.0000     -10.417309      -283.4694
   7   1.0000     -10.417193      -283.4662
   8   1.0000     -10.392316      -282.7893
   9   1.0000     -10.392234      -282.7871
  10   1.0000     -10.388323      -282.6806
  11   1.0000     -10.388222      -282.6779
  12   1.0000     -10.385294      -282.5982
  13   1.0000     -10.385224      -282.5963
  14   1.0000     -10.373394      -282.2744
  15   1.0000     -10.373296      -282.2717
  16   1.0000     -10.368860      -282.1510
  17   1.0000     -10.368760      -282.1483
  18   1.0000      -8.206765      -223.3174
  19   1.0000      -8.206681      -223.3152
  20   1.0000      -6.149365      -167.3327
  21   1.0000      -6.149141      -167.3266
  22   1.0000      -6.144397      -167.1975
  23   1.0000      -6.144322      -167.1955
  24   1.0000      -6.138240      -167.0300
  25   1.0000      -6.138161      -167.0278
  26   1.0000      -1.231069       -33.4991
  27   1.0000      -1.230956       -33.4960
  28   1.0000      -1.046719       -28.4827
  29   1.0000      -1.024874       -27.8882
  30   1.0000      -0.990009       -26.9395
  31   1.0000      -0.938488       -25.5376
  32   1.0000      -0.912969       -24.8431
  33   1.0000      -0.909953       -24.7611
  34   1.0000      -0.893935       -24.3252
  35   1.0000      -0.868523       -23.6337
  36   1.0000      -0.835071       -22.7234
  37   1.0000      -0.799544       -21.7567
  38   1.0000      -0.770116       -20.9559
  39   1.0000      -0.769250       -20.9323
  40   1.0000      -0.738325       -20.0908
  41   1.0000      -0.723229       -19.6801
  42   1.0000      -0.686153       -18.6712
  43   1.0000      -0.682877       -18.5820
  44   1.0000      -0.655360       -17.8332
  45   1.0000      -0.644613       -17.5408
  46   1.0000      -0.630787       -17.1646
  47   1.0000      -0.617283       -16.7971
  48   1.0000      -0.609989       -16.5986
  49   1.0000      -0.609862       -16.5952
  50   1.0000      -0.596579       -16.2337
  51   1.0000      -0.595858       -16.2141
  52   1.0000      -0.579384       -15.7658
  53   1.0000      -0.578847       -15.7512
  54   1.0000      -0.563074       -15.3220
  55   1.0000      -0.557721       -15.1764
  56   1.0000      -0.551157       -14.9977
  57   1.0000      -0.541265       -14.7286
  58   1.0000      -0.526023       -14.3138
  59   1.0000      -0.523519       -14.2457
  60   1.0000      -0.511177       -13.9098
  61   1.0000      -0.510183       -13.8828
  62   1.0000      -0.491109       -13.3638
  63   1.0000      -0.487921       -13.2770
  64   1.0000      -0.480785       -13.0828
  65   1.0000      -0.465924       -12.6784
  66   1.0000      -0.465637       -12.6706
  67   1.0000      -0.447462       -12.1761
  68   1.0000      -0.410294       -11.1647
  69   1.0000      -0.409824       -11.1519
  70   1.0000      -0.398633       -10.8474
  71   1.0000      -0.351072        -9.5532
  72   0.0000      -0.293662        -7.9910
  73   0.0000      -0.183903        -5.0043
  74   0.0000      -0.142253        -3.8709
  75   0.0000      -0.137098        -3.7306
  76   0.0000      -0.130978        -3.5641

MULLIKEN ATOMIC CHARGES AND SPIN POPULATIONS
--------------------------------------------
   0 C :   -0.081240    0.051268
   1 C :   -0.077235    0.020663
   2 C :   -0.119176   -0.007635
   3 C :    0.284025    0.072984
   4 C :   -0.205117    0.011870
   5 C :   -0.064980    0.029448
   6 H :    0.136936   -0.000969
   7 H :    0.133459   -0.001102
   8 O :   -0.279484    0.050486
   9 C :   -0.184963   -0.004641
  10 H :    0.160069    0.003887
  11 H :    0.160490    0.003834
  12 H :    0.185372   -0.000016
  13 H :    0.139367    0.000411
  14 H :    0.133911   -0.001293
  15 S :    0.178107    0.269896
  16 S :    0.178375    0.270653
  17 C :   -0.080967    0.051379
  18 C :   -0.077430    0.020734
  19 C :   -0.119073   -0.007527
  20 C :    0.284002    0.073397
  21 C :   -0.205064    0.011659
  22 C :   -0.064991    0.029773
  23 H :    0.136984   -0.000989
  24 H :    0.133495   -0.001095
  25 O :   -0.279400    0.050737
  26 C :   -0.184987   -0.004662
  27 H :    0.160104    0.003906
  28 H :    0.185410   -0.000016
  29 H :    0.160534    0.003853
  30 H :    0.139415    0.000402
  31 H :    0.134051   -0.001295
Sum of atomic charges         :    1.0000000

LOEWDIN ATOMIC CHARGES AND SPIN POPULATIONS
-------------------------------------------
   0 C :   -0.218008    0.054150
   1 C :   -0.116413    0.021901
   2 C :   -0.116976    0.000915
   3 C :    0.076780    0.059444
   4 C :   -0.151344    0.017426
   5 C :   -0.099457    0.029745
   6 H :    0.150945   -0.000394
   7 H :    0.154458   -0.000615
   8 O :   -0.053918    0.052135
   9 C :   -0.196488   -0.001820
  10 H :    0.128596    0.002717
  11 H :    0.128662    0.002745
  12 H :    0.145742   -0.000023
  13 H :    0.160451    0.000363
  14 H :    0.141731   -0.000332
  15 S :    0.364782    0.260746
  16 S :    0.365142    0.261470
  17 C :   -0.217848    0.054263
  18 C :   -0.116453    0.021993
  19 C :   -0.116889    0.001039
  20 C :    0.076809    0.059773
  21 C :   -0.151306    0.017308
  22 C :   -0.099431    0.030008
  23 H :    0.150962   -0.000404
  24 H :    0.154477   -0.000612
  25 O :   -0.053815    0.052397
  26 C :   -0.196478   -0.001829
  27 H :    0.128620    0.002730
  28 H :    0.145763   -0.000023
  29 H :    0.128688    0.002759
  30 H :    0.160476    0.000358
  31 H :    0.141739   -0.000332

  Mayer bond orders larger than 0.100000
B(  0-C ,  1-C ) :   1.2754 B(  0-C ,  5-C ) :   1.3147 B(  0-C , 15-S ) :   1.0431
B(  1-C ,  2-C ) :   1.4928 B(  1-C , 14-H ) :   0.9468 B(  2-C ,  3-C ) :   1.2907
B(  2-C , 13-H ) :   0.9550 B(  3-C ,  4-C ) :   1.2515 B(  3-C ,  8-O ) :   1.2124
B(  4-C ,  5-C ) :   1.4748 B(  4-C ,  7-H ) :   0.9534 B(  5-C ,  6-H ) :   0.9508
B(  8-O ,  9-C ) :   0.9090 B(  9-C , 10-H ) :   0.9388 B(  9-C , 11-H ) :   0.9389
B(  9-C , 12-H ) :   0.9489 B( 15-S , 16-S ) :   1.1550 B( 16-S , 17-C ) :   1.0435
B( 17-C , 18-C ) :   1.2754 B( 17-C , 22-C ) :   1.3144 B( 18-C , 19-C ) :   1.4929
B( 18-C , 31-H ) :   0.9467 B( 19-C , 20-C ) :   1.2905 B( 19-C , 30-H ) :   0.9550
B( 20-C , 21-C ) :   1.2514 B( 20-C , 25-O ) :   1.2126 B( 21-C , 22-C ) :   1.4751
B( 21-C , 24-H ) :   0.9534 B( 22-C , 23-H ) :   0.9508 B( 25-O , 26-C ) :   0.9090
B( 26-C , 27-H ) :   0.9388 B( 26-C , 28-H ) :   0.9489 B( 26-C , 29-H ) :   0.9388

Dispersion correction           -0.036325890
FINAL SINGLE POINT ENERGY     -1486.656979917475

DIPOLE MOMENT
-------------

Method             : SCF
Type of density    : Electron Density
Multiplicity       :   2
Irrep              :   0
Energy             : -1486.6206540274652070 Eh
Relativity type    :
Basis              : AO
                                X                 Y                 Z
Electronic contribution:     -0.004435455       3.132235396       0.016432192
Nuclear contribution   :     -0.000025572      -2.851825111      -0.017728862
                        -----------------------------------------
Total Dipole Moment    :     -0.004461028       0.280410285      -0.001296670
                        -----------------------------------------
Magnitude (a.u.)       :      0.280448765
Magnitude (Debye)      :      0.712844111

VIBRATIONAL FREQUENCIES
-----------------------

Scaling factor for frequencies =  1.000000000  (already applied!)

     0:       0.00 cm**-1
     1:       0.00 cm**-1
     2:       0.00 cm**-1
     3:       0.00 cm**-1
     4:       0.00 cm**-1
     5:       0.00 cm**-1
     6:       6.56 cm**-1
     7:      16.74 cm**-1
     8:      40.06 cm**-1
     9:      72.41 cm**-1
    10:      81.06 cm**-1
    11:      89.63 cm**-1
    12:     121.40 cm**-1
    13:     157.27 cm**-1
    14:     173.41 cm**-1
    15:     189.54 cm**-1
    16:     221.17 cm**-1
    17:     229.55 cm**-1
    18:     229.96 cm**-1
    19:     306.37 cm**-1
    20:     313.08 cm**-1
    21:     325.08 cm**-1
    22:     344.61 cm**-1
    23:     362.05 cm**-1
    24:     400.52 cm**-1
    25:     412.93 cm**-1
    26:     420.52 cm**-1
    27:     507.79 cm**-1
    28:     515.45 cm**-1
    29:     526.33 cm**-1
    30:     529.79 cm**-1
    31:     560.96 cm**-1
    32:     630.45 cm**-1
    33:     632.96 cm**-1
    34:     660.79 cm**-1
    35:     661.02 cm**-1
    36:     727.20 cm**-1
    37:     727.91 cm**-1
    38:     820.86 cm**-1
    39:     822.24 cm**-1
    40:     833.90 cm**-1
    41:     834.66 cm**-1
    42:     859.32 cm**-1
    43:     861.15 cm**-1
    44:     979.21 cm**-1
    45:     979.47 cm**-1
    46:     989.59 cm**-1
    47:     990.55 cm**-1
    48:    1009.13 cm**-1
    49:    1011.44 cm**-1
    50:    1093.61 cm**-1
    51:    1093.78 cm**-1
    52:    1105.32 cm**-1
    53:    1125.47 cm**-1
    54:    1139.81 cm**-1
    55:    1141.34 cm**-1
    56:    1174.49 cm**-1
    57:    1174.52 cm**-1
    58:    1196.78 cm**-1
    59:    1200.87 cm**-1
    60:    1211.81 cm**-1
    61:    1212.00 cm**-1
    62:    1314.35 cm**-1
    63:    1316.78 cm**-1
    64:    1362.91 cm**-1
    65:    1373.67 cm**-1
    66:    1384.16 cm**-1
    67:    1393.48 cm**-1
    68:    1473.73 cm**-1
    69:    1474.27 cm**-1
    70:    1483.87 cm**-1
    71:    1485.43 cm**-1
    72:    1485.70 cm**-1
    73:    1485.98 cm**-1
    74:    1505.80 cm**-1
    75:    1507.32 cm**-1
    76:    1557.01 cm**-1
    77:    1560.24 cm**-1
    78:    1606.10 cm**-1
    79:    1608.92 cm**-1
    80:    1660.02 cm**-1
    81:    1691.51 cm**-1
    82:    3042.20 cm**-1
    83:    3042.56 cm**-1
    84:    3136.81 cm**-1
    85:    3136.87 cm**-1
    86:    3199.90 cm**-1
    87:    3199.95 cm**-1
    88:    3211.92 cm**-1
    89:    3211.94 cm**-1
    90:    3217.95 cm**-1
    91:    3218.05 cm**-1
    92:    3237.97 cm**-1
    93:    3238.02 cm**-1
    94:    3246.90 cm**-1
    95:    3246.90 cm**-1

IR SPECTRUM
-----------

 Mode   freq       eps      Int      T**2         TX        TY        TZ
       cm**-1   L/(mol*cm) km/mol    a.u.
----------------------------------------------------------------------------
  6:      6.56   0.001593    8.05  0.075723  (-0.256954 -0.000161 -0.098477)
  7:     16.74   0.000096    0.48  0.001789  ( 0.000601 -0.042297  0.000044)
  8:     40.06   0.000216    1.09  0.001682  (-0.000423  0.041012 -0.000059)
  9:     72.41   0.000012    0.06  0.000051  ( 0.000799  0.007088  0.000064)
 10:     81.06   0.004922   24.87  0.018948  (-0.136913  0.000000  0.014233)
 11:     89.63   0.003026   15.29  0.010535  (-0.100085  0.000038 -0.022758)
 12:    121.40   0.000277    1.40  0.000713  ( 0.000027  0.026698 -0.000013)
 13:    157.27   0.000492    2.49  0.000977  (-0.001598  0.000037  0.031209)
 14:    173.41   0.000535    2.70  0.000962  (-0.000152 -0.031017 -0.000014)
 15:    189.54   0.000121    0.61  0.000199  ( 0.000033 -0.014107  0.000008)
 16:    221.17   0.000076    0.38  0.000107  ( 0.008175  0.000017  0.006375)
 17:    229.55   0.000024    0.12  0.000032  (-0.002970 -0.004792  0.000840)
 18:    229.96   0.001237    6.25  0.001678  (-0.039522  0.000346  0.010778)
 19:    306.37   0.000326    1.65  0.000332  ( 0.000124 -0.018219 -0.000063)
 20:    313.08   0.004155   21.00  0.004142  (-0.059793 -0.000050  0.023805)
 21:    325.08   0.000291    1.47  0.000279  (-0.000046  0.016707  0.000016)
 22:    344.61   0.000555    2.81  0.000503  (-0.014591 -0.000053  0.017023)
 23:    362.05   0.028712  145.10  0.024747  ( 0.157294 -0.000036 -0.002430)
 24:    400.52   0.000025    0.13  0.000020  (-0.000232 -0.004430 -0.000066)
 25:    412.93   0.010281   51.96  0.007770  (-0.087578 -0.000010 -0.009998)
 26:    420.52   0.000016    0.08  0.000012  ( 0.000568 -0.003396  0.000033)
 27:    507.79   0.033566  169.63  0.020628  (-0.143594  0.000029 -0.002907)
 28:    515.45   0.001185    5.99  0.000717  (-0.000234 -0.026785 -0.000043)
 29:    526.33   0.000320    1.62  0.000190  (-0.000482  0.013772  0.000162)
 30:    529.79   0.006188   31.27  0.003645  (-0.045755 -0.000064  0.039386)
 31:    560.96   0.000792    4.00  0.000441  (-0.000297 -0.020990  0.000028)
 32:    630.45   0.001534    7.75  0.000759  ( 0.025383 -0.000067  0.010731)
 33:    632.96   0.000262    1.32  0.000129  (-0.000109 -0.011356 -0.000054)
 34:    660.79   0.001017    5.14  0.000480  ( 0.004502 -0.021416 -0.001138)
 35:    661.02   0.009487   47.94  0.004479  (-0.064860 -0.001482  0.016425)
 36:    727.20   0.000174    0.88  0.000075  (-0.000093 -0.008644 -0.000021)
 37:    727.91   0.001770    8.95  0.000759  (-0.027428  0.000023 -0.002559)
 38:    820.86   0.003948   19.95  0.001501  (-0.038047  0.000140  0.007307)
 39:    822.24   0.000256    1.29  0.000097  (-0.000551 -0.009838  0.000058)
 40:    833.90   0.005248   26.52  0.001964  ( 0.040585 -0.000020  0.017795)
 41:    834.66   0.000184    0.93  0.000069  ( 0.000047  0.008287  0.000048)
 42:    859.32   0.009381   47.41  0.003407  ( 0.001095 -0.000112  0.058356)
 43:    861.15   0.011240   56.80  0.004073  ( 0.000101 -0.063821 -0.000103)
 44:    979.21   0.000258    1.30  0.000082  ( 0.006919 -0.000048  0.005860)
 45:    979.47   0.000143    0.73  0.000046  (-0.000008  0.006761  0.000018)
 46:    989.59   0.003898   19.70  0.001229  (-0.034270  0.000183 -0.007390)
 47:    990.55   0.000168    0.85  0.000053  (-0.000899 -0.007224 -0.000185)
 48:   1009.13   0.033689  170.25  0.010418  (-0.102006 -0.000016  0.003565)
 49:   1011.44   0.000143    0.72  0.000044  ( 0.000166 -0.006642 -0.000021)
 50:   1093.61   0.031098  157.15  0.008874  ( 0.090073 -0.003054  0.027411)
 51:   1093.78   0.002147   10.85  0.000613  ( 0.013984  0.019989  0.004168)
 52:   1105.32   0.326816  1651.60  0.092270  ( 0.303739 -0.000038  0.003530)
 53:   1125.47   0.000131    0.66  0.000036  (-0.000105 -0.006031 -0.000028)
 54:   1139.81   0.002925   14.78  0.000801  ( 0.016143 -0.000309 -0.023242)
 55:   1141.34   0.001753    8.86  0.000479  ( 0.000136  0.021890 -0.000323)
 56:   1174.49   0.000107    0.54  0.000028  ( 0.000561  0.003904  0.003580)
 57:   1174.52   0.000110    0.55  0.000029  (-0.000534  0.004248 -0.003291)
 58:   1196.78   0.080341  406.01  0.020949  (-0.144721  0.000013 -0.002249)
 59:   1200.87   0.000078    0.39  0.000020  (-0.000614 -0.004450 -0.000038)
 60:   1211.81   0.002160   10.91  0.000556  (-0.021689  0.000221 -0.009259)
 61:   1212.00   0.000227    1.15  0.000059  (-0.000623 -0.007619 -0.000259)
 62:   1314.35   0.002849   14.40  0.000676  (-0.018647 -0.000003 -0.018132)
 63:   1316.78   0.000621    3.14  0.000147  ( 0.000099 -0.012129  0.000029)
 64:   1362.91   0.423404  2139.71  0.096946  (-0.311244  0.000024  0.008577)
 65:   1373.67   0.001569    7.93  0.000356  (-0.000608 -0.018869 -0.000069)
 66:   1384.16   0.110401  557.92  0.024890  (-0.157737 -0.000019 -0.003044)
 67:   1393.48   0.000875    4.42  0.000196  (-0.000248  0.013995  0.000070)
 68:   1473.73   0.023973  121.15  0.005076  ( 0.068392  0.000440 -0.019966)
 69:   1474.27   0.002123   10.73  0.000449  ( 0.001270 -0.021156 -0.000408)
 70:   1483.87   0.054876  277.32  0.011541  ( 0.107296  0.000136 -0.005303)
 71:   1485.43   0.004587   23.18  0.000964  ( 0.000975 -0.031021 -0.000590)
 72:   1485.70   0.005071   25.63  0.001065  ( 0.018981  0.000525 -0.026545)
 73:   1485.98   0.000151    0.76  0.000032  ( 0.000579  0.005579 -0.000456)
 74:   1505.80   0.002662   13.45  0.000552  (-0.021342  0.000224  0.009801)
 75:   1507.32   0.000398    2.01  0.000082  ( 0.000636  0.009054 -0.000278)
 76:   1557.01   0.085322  431.18  0.017101  (-0.129476 -0.000064  0.018350)
 77:   1560.24   0.003469   17.53  0.000694  (-0.000070  0.026339  0.000102)
 78:   1606.10   0.032899  166.26  0.006392  ( 0.077953  0.000453 -0.017761)
 79:   1608.92   0.001696    8.57  0.000329  ( 0.002012 -0.018022 -0.000466)
 80:   1660.02   0.716498  3620.88  0.134693  ( 0.366906 -0.000004 -0.008531)
 81:   1691.51   0.005493   27.76  0.001013  (-0.000089 -0.031833 -0.000115)
 82:   3042.20   0.034356  173.62  0.003524  ( 0.058544  0.000320  0.009833)
 83:   3042.56   0.000399    2.02  0.000041  (-0.003423  0.005372 -0.000595)
 84:   3136.81   0.001918    9.69  0.000191  (-0.000110  0.009929 -0.009601)
 85:   3136.87   0.001932    9.76  0.000192  ( 0.000091  0.010483  0.009072)
 86:   3199.90   0.000917    4.63  0.000089  ( 0.009208 -0.001660 -0.001366)
 87:   3199.95   0.000690    3.49  0.000067  (-0.007890 -0.001931  0.001156)
 88:   3211.92   0.000190    0.96  0.000018  ( 0.003189  0.001916 -0.002151)
 89:   3211.94   0.000151    0.76  0.000015  ( 0.002236 -0.002729 -0.001502)
 90:   3217.95   0.000054    0.27  0.000005  (-0.002249 -0.000057 -0.000427)
 91:   3218.05   0.001498    7.57  0.000145  (-0.011834  0.000019 -0.002282)
 92:   3237.97   0.000401    2.03  0.000039  (-0.001826 -0.005604 -0.001978)
 93:   3238.02   0.000850    4.30  0.000082  (-0.005987  0.001705 -0.006571)
 94:   3246.90   0.000617    3.12  0.000059  ( 0.005460 -0.002683 -0.004723)
 95:   3246.90   0.000424    2.14  0.000041  (-0.002830 -0.005171  0.002455)

--------------------------
THERMOCHEMISTRY AT 298.15K
--------------------------

Temperature         ...   298.15 K
Pressure            ...     1.00 atm
Total Mass          ...   278.38 AMU
Quasi RRHO          ...     True
Cut-Off Frequency   ...     1.00 cm^-1

Throughout the following assumptions are being made:
  (1) The electronic state is orbitally nondegenerate
      but the spin degeneracy is treated
  (2) There are no thermally accessible electronically excited states
  (3) Hindered rotations indicated by low frequency modes are not
      treated as such but are treated as vibrations and this may
      cause some error
  (4) All equations used are the standard statistical mechanics
      equations for an ideal gas
  (5) All vibrations are strictly harmonic

freq.       6.56  E(vib)   ...       0.58
freq.      16.74  E(vib)   ...       0.57
freq.      40.06  E(vib)   ...       0.54
freq.      72.41  E(vib)   ...       0.50
freq.      81.06  E(vib)   ...       0.48
freq.      89.63  E(vib)   ...       0.47
freq.     121.40  E(vib)   ...       0.44
freq.     157.27  E(vib)   ...       0.40
freq.     173.41  E(vib)   ...       0.38
freq.     189.54  E(vib)   ...       0.36
freq.     221.17  E(vib)   ...       0.33
freq.     229.55  E(vib)   ...       0.32
freq.     229.96  E(vib)   ...       0.32
freq.     306.37  E(vib)   ...       0.26
freq.     313.08  E(vib)   ...       0.25
freq.     325.08  E(vib)   ...       0.24
freq.     344.61  E(vib)   ...       0.23
freq.     362.05  E(vib)   ...       0.22
freq.     400.52  E(vib)   ...       0.19
freq.     412.93  E(vib)   ...       0.19
freq.     420.52  E(vib)   ...       0.18
freq.     507.79  E(vib)   ...       0.14
freq.     515.45  E(vib)   ...       0.13
freq.     526.33  E(vib)   ...       0.13
freq.     529.79  E(vib)   ...       0.13
freq.     560.96  E(vib)   ...       0.11
freq.     630.45  E(vib)   ...       0.09
freq.     632.96  E(vib)   ...       0.09
freq.     660.79  E(vib)   ...       0.08
freq.     661.02  E(vib)   ...       0.08
freq.     727.20  E(vib)   ...       0.06
freq.     727.91  E(vib)   ...       0.06
freq.     820.86  E(vib)   ...       0.05
freq.     822.24  E(vib)   ...       0.05
freq.     833.90  E(vib)   ...       0.04
freq.     834.66  E(vib)   ...       0.04
freq.     859.32  E(vib)   ...       0.04
freq.     861.15  E(vib)   ...       0.04
freq.     979.21  E(vib)   ...       0.03
freq.     979.47  E(vib)   ...       0.03
freq.     989.59  E(vib)   ...       0.02
freq.     990.55  E(vib)   ...       0.02
freq.    1009.13  E(vib)   ...       0.02
freq.    1011.44  E(vib)   ...       0.02
freq.    1093.61  E(vib)   ...       0.02
freq.    1093.78  E(vib)   ...       0.02
freq.    1105.32  E(vib)   ...       0.02
freq.    1125.47  E(vib)   ...       0.01
freq.    1139.81  E(vib)   ...       0.01
freq.    1141.34  E(vib)   ...       0.01
freq.    1174.49  E(vib)   ...       0.01
freq.    1174.52  E(vib)   ...       0.01
freq.    1196.78  E(vib)   ...       0.01
freq.    1200.87  E(vib)   ...       0.01
freq.    1211.81  E(vib)   ...       0.01
freq.    1212.00  E(vib)   ...       0.01
freq.    1314.35  E(vib)   ...       0.01
freq.    1316.78  E(vib)   ...       0.01
freq.    1362.91  E(vib)   ...       0.01
freq.    1373.67  E(vib)   ...       0.01
freq.    1384.16  E(vib)   ...       0.00
freq.    1393.48  E(vib)   ...       0.00
freq.    1473.73  E(vib)   ...       0.00
freq.    1474.27  E(vib)   ...       0.00
freq.    1483.87  E(vib)   ...       0.00
freq.    1485.43  E(vib)   ...       0.00
freq.    1485.70  E(vib)   ...       0.00
freq.    1485.98  E(vib)   ...       0.00
freq.    1505.80  E(vib)   ...       0.00
freq.    1507.32  E(vib)   ...       0.00
freq.    1557.01  E(vib)   ...       0.00
freq.    1560.24  E(vib)   ...       0.00
freq.    1606.10  E(vib)   ...       0.00
freq.    1608.92  E(vib)   ...       0.00
freq.    1660.02  E(vib)   ...       0.00
freq.    1691.51  E(vib)   ...       0.00
freq.    3042.20  E(vib)   ...       0.00
freq.    3042.56  E(vib)   ...       0.00
freq.    3136.81  E(vib)   ...       0.00
freq.    3136.87  E(vib)   ...       0.00
freq.    3199.90  E(vib)   ...       0.00
freq.    3199.95  E(vib)   ...       0.00
freq.    3211.92  E(vib)   ...       0.00
freq.    3211.94  E(vib)   ...       0.00
freq.    3217.95  E(vib)   ...       0.00
freq.    3218.05  E(vib)   ...       0.00
freq.    3237.97  E(vib)   ...       0.00
freq.    3238.02  E(vib)   ...       0.00
freq.    3246.90  E(vib)   ...       0.00
freq.    3246.90  E(vib)   ...       0.00

------------
INNER ENERGY
------------

The inner energy is: U= E(el) + E(ZPE) + E(vib) + E(rot) + E(trans)
    E(el)   - is the total energy from the electronic structure calculation
              = E(kin-el) + E(nuc-el) + E(el-el) + E(nuc-nuc)
    E(ZPE)  - the the zero temperature vibrational energy from the frequency calculation
    E(vib)  - the the finite temperature correction to E(ZPE) due to population
              of excited vibrational states
    E(rot)  - is the rotational thermal energy
    E(trans)- is the translational thermal energy

Summary of contributions to the inner energy U:
Electronic energy                ...  -1486.65697992 Eh
Zero point energy                ...      0.25145291 Eh     157.79 kcal/mol
Thermal vibrational correction   ...      0.01465478 Eh       9.20 kcal/mol
Thermal rotational correction    ...      0.00141627 Eh       0.89 kcal/mol
Thermal translational correction ...      0.00141627 Eh       0.89 kcal/mol
-----------------------------------------------------------------------
Total thermal energy                  -1486.38803968 Eh

Summary of corrections to the electronic energy:
(perhaps to be used in another calculation)
Total thermal correction                  0.01748732 Eh      10.97 kcal/mol
Non-thermal (ZPE) correction              0.25145291 Eh     157.79 kcal/mol
-----------------------------------------------------------------------
Total correction                          0.26894023 Eh     168.76 kcal/mol

--------
ENTHALPY
--------

The enthalpy is H = U + kB*T
                kB is Boltzmann's constant
Total thermal energy              ...  -1486.38803968 Eh
Thermal Enthalpy correction       ...      0.00094421 Eh       0.59 kcal/mol
-----------------------------------------------------------------------
Total Enthalpy                    ...  -1486.38709548 Eh

Note: Only C1 symmetry has been detected, increase convergence thresholds
      if your molecule has a higher symmetry. Symmetry factor of 1.0 is
      used for the rotational entropy correction.

Note: Rotational entropy computed according to Herzberg
Infrared and Raman Spectra, Chapter V,1, Van Nostrand Reinhold, 1945

Rotational constants in cm-1:     0.050702     0.003581     0.003572

                             ****ORCA TERMINATED NORMALLY****
TOTAL RUN TIME: 0 days 0 hours 25 minutes 39 seconds 527 msec
