                         Program Version 6.0.0  -   RELEASE  -
|  1> !r2SCAN opt aug-cc-pVTZ d3 TightSCF SlowConv RIJCOSX defgrid2
|  2>
|  3> %pal
|  4> nprocs 8
|  5> end
|  6>
|  7> %scf
|  8> MaxIter 1500
|  9> end
| 10>
| 11> %maxcore 3500
| 12>
| 13> !CPCM
| 14> %cpcm smd true
| 15> SMDsolvent "MeCN"
| 16> surfacetype gepol_ses
| 17> rsolv 2.19
| 18> end
| 19>
| 20> * xyz -1 2
| 21>   C          -1.16908364743389     -1.25106043112589     -0.00046711885945
| 22>   C          -2.51558895662628     -0.94805778331016     -0.00048970260602
| 23>   C          -2.96951415995677      0.38786935411419     -0.00003437372110
| 24>   C          -1.99949719417351      1.41257476413842      0.00046952009611
| 25>   C          -0.64650719425624      1.13368035065037      0.00050575201273
| 26>   C          -0.16707249946699     -0.21739071251225      0.00002200149285
| 27>   C           1.18771930240505     -0.62830725495849      0.00000084051024
| 28>   O           1.69166054938407     -1.73447405522234     -0.00027921149921
| 29>   Cl          2.41415222066200      0.84117378911090      0.00088007792741
| 30>   H           0.08783721642061      1.94210741862158      0.00088650713536
| 31>   H          -2.32239478311716      2.46171169296406      0.00083360203305
| 32>   H          -4.03893270236722      0.62157662484535     -0.00006413910783
| 33>   H          -3.24555265578784     -1.76825494852385     -0.00088549117391
| 34>   H          -0.82790279568582     -2.29013880879190     -0.00083276424023
| 35> *
| 36>
| 37>                          ****END OF INPUT****
 Total Charge           Charge          ....   -1
 Multiplicity           Mult            ....    2
 Number of Electrons    NEL             ....   73
Dispersion correction           -0.004718898
FINAL SINGLE POINT ENERGY      -805.232887129660
Dispersion correction             ... done (  0.0 sec)
Dispersion correction           -0.004722022
FINAL SINGLE POINT ENERGY      -805.233628712424
Dispersion correction             ... done (  0.0 sec)
Dispersion correction           -0.004722185
FINAL SINGLE POINT ENERGY      -805.233714371708
Dispersion correction             ... done (  0.0 sec)
FINAL SINGLE POINT ENERGY      -805.233751446281
FINAL SINGLE POINT ENERGY      -805.233769123613
Dispersion correction             ... done (  0.1 sec)
Dispersion correction           -0.004719601
FINAL SINGLE POINT ENERGY      -805.233780235151
Dispersion correction             ... done (  0.1 sec)
Dispersion correction           -0.004719385
FINAL SINGLE POINT ENERGY      -805.233784187071
Dispersion correction             ... done (  0.1 sec)
                    ***********************HURRAY********************

CARTESIAN COORDINATES (ANGSTROEM)
---------------------------------
  C     -1.172782   -1.253936   -0.000498
  C     -2.516539   -0.946559   -0.000585
  C     -2.960629    0.386086   -0.000217
  C     -1.997160    1.409578    0.000335
  C     -0.646247    1.129963    0.000458
  C     -0.174671   -0.218789    0.000020
  C      1.169780   -0.633261    0.000274
  O      1.698634   -1.734160    0.000198
  Cl     2.432626    0.861476    0.000103
  H      0.071008    1.939423    0.001219
  H     -2.317496    2.446725    0.001188
  H     -4.018427    0.618775   -0.000067
  H     -3.241303   -1.754939   -0.001015
  H     -0.847473   -2.287372   -0.000868

 Multiplicity           Mult            ....    2
 Number of Electrons    NEL             ....   73
 Basis Dimension        Dim             ....  533

ORBITAL ENERGIES
----------------
                 SPIN UP ORBITALS
  NO   OCC          E(Eh)            E(eV)
   0   1.0000    -101.170268     -2752.9830
   1   1.0000     -18.923977      -514.9476
   2   1.0000     -10.109179      -275.0848
   3   1.0000     -10.031234      -272.9638
   4   1.0000     -10.021901      -272.7098
   5   1.0000     -10.021292      -272.6932
   6   1.0000     -10.021121      -272.6886
   7   1.0000     -10.020483      -272.6712
   8   1.0000     -10.015524      -272.5363
   9   1.0000      -9.322954      -253.6905
  10   1.0000      -7.066368      -192.2857
  11   1.0000      -7.060466      -192.1250
  12   1.0000      -7.059856      -192.1085
  13   1.0000      -0.982895       -26.7459
  14   1.0000      -0.805047       -21.9064
  15   1.0000      -0.744512       -20.2592
  16   1.0000      -0.705765       -19.2048
  17   1.0000      -0.697776       -18.9874
  18   1.0000      -0.596343       -16.2273
  19   1.0000      -0.551305       -15.0018
  20   1.0000      -0.503116       -13.6905
  21   1.0000      -0.453676       -12.3452
  22   1.0000      -0.414280       -11.2731
  23   1.0000      -0.405435       -11.0324
  24   1.0000      -0.381091       -10.3700
  25   1.0000      -0.374952       -10.2030
  26   1.0000      -0.371148       -10.0995
  27   1.0000      -0.359133        -9.7725
  28   1.0000      -0.323894        -8.8136
  29   1.0000      -0.311260        -8.4698
  30   1.0000      -0.286052        -7.7839
  31   1.0000      -0.259177        -7.0526
  32   1.0000      -0.257012        -6.9937
  33   1.0000      -0.231515        -6.2998
  34   1.0000      -0.230175        -6.2634
  35   1.0000      -0.225277        -6.1301
  36   1.0000      -0.096009        -2.6125
  37   0.0000      -0.022099        -0.6014
  38   0.0000      -0.004355        -0.1185
  39   0.0000       0.012366         0.3365
  40   0.0000       0.023051         0.6272
  41   0.0000       0.025020         0.6808

                 SPIN DOWN ORBITALS
  NO   OCC          E(Eh)            E(eV)
   0   1.0000    -101.170245     -2752.9823
   1   1.0000     -18.918016      -514.7854
   2   1.0000     -10.103471      -274.9294
   3   1.0000     -10.030942      -272.9558
   4   1.0000     -10.023550      -272.7547
   5   1.0000     -10.022666      -272.7306
   6   1.0000     -10.017902      -272.6010
   7   1.0000     -10.017268      -272.5837
   8   1.0000     -10.010393      -272.3966
   9   1.0000      -9.322942      -253.6902
  10   1.0000      -7.066542      -192.2904
  11   1.0000      -7.060211      -192.1181
  12   1.0000      -7.059859      -192.1085
  13   1.0000      -0.973470       -26.4895
  14   1.0000      -0.800691       -21.7879
  15   1.0000      -0.741697       -20.1826
  16   1.0000      -0.700559       -19.0632
  17   1.0000      -0.694324       -18.8935
  18   1.0000      -0.583566       -15.8796
  19   1.0000      -0.550070       -14.9682
  20   1.0000      -0.499136       -13.5822
  21   1.0000      -0.448532       -12.2052
  22   1.0000      -0.412012       -11.2114
  23   1.0000      -0.400966       -10.9108
  24   1.0000      -0.379501       -10.3268
  25   1.0000      -0.370356       -10.0779
  26   1.0000      -0.356298        -9.6954
  27   1.0000      -0.350774        -9.5450
  28   1.0000      -0.309121        -8.4116
  29   1.0000      -0.308967        -8.4074
  30   1.0000      -0.285178        -7.7601
  31   1.0000      -0.256303        -6.9743
  32   1.0000      -0.254262        -6.9188
  33   1.0000      -0.222188        -6.0461
  34   1.0000      -0.222092        -6.0434
  35   1.0000      -0.212767        -5.7897
  36   0.0000      -0.055634        -1.5139
  37   0.0000      -0.016473        -0.4483
  38   0.0000       0.001745         0.0475
  39   0.0000       0.016209         0.4411
  40   0.0000       0.026585         0.7234

MULLIKEN ATOMIC CHARGES AND SPIN POPULATIONS
--------------------------------------------
   0 C :   -0.920679    0.283205
   1 C :   -0.408945   -0.182909
   2 C :   -0.385768    0.371507
   3 C :   -0.619509   -0.166742
   4 C :   -0.985236    0.285686
   5 C :    1.724843   -0.003286
   6 C :    0.388834    0.274306
   7 O :   -0.835438    0.202992
   8 Cl:   -0.491887    0.007195
   9 H :    0.175177   -0.016718
  10 H :    0.429122   -0.014454
  11 H :    0.494014   -0.014215
  12 H :    0.366974   -0.006361
  13 H :    0.068497   -0.020205
Sum of atomic charges         :   -1.0000000

LOEWDIN ATOMIC CHARGES AND SPIN POPULATIONS
-------------------------------------------
   0 C :    0.141928    0.102159
   1 C :    0.142398    0.025003
   2 C :    0.153718    0.138009
   3 C :    0.139957    0.026147
   4 C :    0.104286    0.098719
   5 C :   -0.332314    0.118008
   6 C :   -1.095799    0.212685
   7 O :    0.293486    0.186006
   8 Cl:    0.537864    0.025401
   9 H :   -0.279708    0.021584
  10 H :   -0.194780   -0.007065
  11 H :   -0.207355    0.037686
  12 H :   -0.193631   -0.007700
  13 H :   -0.210050    0.023359

  Mayer bond orders larger than 0.100000
B(  0-C ,  1-C ) :   1.2054 B(  0-C ,  4-C ) :  -0.1944 B(  0-C ,  6-C ) :   0.2420
B(  0-C , 12-H ) :  -0.1255 B(  0-C , 13-H ) :   1.0378 B(  1-C ,  2-C ) :   0.9247
B(  1-C ,  4-C ) :  -0.1075 B(  1-C ,  5-C ) :   0.1099 B(  1-C , 12-H ) :   0.7848
B(  2-C ,  3-C ) :   0.9528 B(  2-C ,  5-C ) :  -0.1754 B(  2-C ,  6-C ) :   0.1419
B(  2-C , 11-H ) :   0.6028 B(  3-C ,  4-C ) :   1.2189 B(  3-C , 10-H ) :   0.6959
B(  4-C ,  5-C ) :  -0.1408 B(  4-C ,  6-C ) :   0.3499 B(  4-C ,  9-H ) :   1.3086
B(  4-C , 10-H ) :  -0.1403 B(  4-C , 13-H ) :   0.1127 B(  5-C ,  6-C ) :   0.6765
B(  5-C ,  7-O ) :   0.2281 B(  5-C , 13-H ) :  -0.1171 B(  6-C ,  7-O ) :   0.8072
B(  6-C ,  8-Cl) :   0.6819 B(  7-O ,  8-Cl) :   0.1081 B(  7-O , 13-H ) :   0.1576
B(  8-Cl,  9-H ) :  -0.1225

Dispersion correction           -0.004719419
FINAL SINGLE POINT ENERGY      -805.233785857079

DIPOLE MOMENT
-------------

Method             : SCF
Type of density    : Electron Density
Multiplicity       :   2
Irrep              :   0
Energy             :  -805.2290664380574299 Eh
Relativity type    :
Basis              : AO
                                X                 Y                 Z
Electronic contribution:     10.974296482       0.983840426       0.000073553
Nuclear contribution   :    -13.032840896      -0.332496827       0.000180836
                        -----------------------------------------
Total Dipole Moment    :     -2.058544414       0.651343599       0.000254390
                        -----------------------------------------
Magnitude (a.u.)       :      2.159132616
Magnitude (Debye)      :      5.488078965

Rotational constants in cm-1:             0.099848             0.030284             0.023236
Rotational constants in MHz :          2993.353702           907.877030           696.599953

                             ****ORCA TERMINATED NORMALLY****
TOTAL RUN TIME: 0 days 0 hours 16 minutes 6 seconds 708 msec
