                         Program Version 6.0.0  -   RELEASE  -
|  1> !r2SCAN aug-cc-pVTZ d3 TightSCF SlowConv RIJCOSX defgrid2
|  2>
|  3> %pal
|  4> nprocs 4
|  5> end
|  6>
|  7> %scf
|  8> MaxIter 1500
|  9> end
| 10>
| 11> %maxcore 3000
| 12>
| 13> !CPCM
| 14> %cpcm smd true
| 15> SMDsolvent "MeCN"
| 16> surfacetype gepol_ses
| 17> rsolv 2.19
| 18> end
| 19>
| 20> * xyz 0 1
| 21> C           1.53272654443288     -1.20734713575059      0.00001134953925
| 22> C           2.23205656040314      0.00003376074589      0.00002131461898
| 23> C           1.53261692111977      1.20735327461293      0.00000329748612
| 24> C           0.14128323670377      1.21145943804893     -0.00003641879993
| 25> C          -0.57083167401632     -0.00009614629977     -0.00005172301107
| 26> C           0.14138939561012     -1.21158285716611     -0.00002530102841
| 27> H          -0.41093083938214     -2.15464364427352     -0.00004270609566
| 28> C          -2.00037464606059     -0.00010505901986     -0.00009934791315
| 29> C          -3.21371752895327      0.00086010309321     -0.00022829616000
| 30> H          -4.28895933598145     -0.00028893327027      0.00071781614810
| 31> H          -0.41113044461304      2.15446486831874     -0.00006102811420
| 32> H           2.07747601296685      2.15600861535335      0.00001063551847
| 33> H           3.32604809148087      0.00008333329139      0.00003835626390
| 34> H           2.07768150628941     -2.15594681768433      0.00002525154760
| 35> *
| 36>
| 37>                          ****END OF INPUT****

CARTESIAN COORDINATES (ANGSTROEM)
---------------------------------
  C      1.532727   -1.207347    0.000011
  C      2.232057    0.000034    0.000021
  C      1.532617    1.207353    0.000003
  C      0.141283    1.211459   -0.000036
  C     -0.570832   -0.000096   -0.000052
  C      0.141389   -1.211583   -0.000025
  H     -0.410931   -2.154644   -0.000043
  C     -2.000375   -0.000105   -0.000099
  C     -3.213718    0.000860   -0.000228
  H     -4.288959   -0.000289    0.000718
  H     -0.411130    2.154465   -0.000061
  H      2.077476    2.156009    0.000011
  H      3.326048    0.000083    0.000038
  H      2.077682   -2.155947    0.000025

 Total Charge           Charge          ....    0
 Multiplicity           Mult            ....    1
 Number of Electrons    NEL             ....   54
 Basis Dimension        Dim             ....  506

ORBITAL ENERGIES
----------------

  NO   OCC          E(Eh)            E(eV)
   0   2.0000     -10.074992      -274.1545
   1   2.0000     -10.052497      -273.5423
   2   2.0000     -10.050983      -273.5011
   3   2.0000     -10.050979      -273.5010
   4   2.0000     -10.047195      -273.3981
   5   2.0000     -10.046766      -273.3864
   6   2.0000     -10.046540      -273.3802
   7   2.0000     -10.041402      -273.2404
   8   2.0000      -0.836358       -22.7585
   9   2.0000      -0.757440       -20.6110
  10   2.0000      -0.721261       -19.6265
  11   2.0000      -0.701093       -19.0777
  12   2.0000      -0.596838       -16.2408
  13   2.0000      -0.579629       -15.7725
  14   2.0000      -0.518436       -14.1073
  15   2.0000      -0.481041       -13.0898
  16   2.0000      -0.444230       -12.0881
  17   2.0000      -0.430610       -11.7175
  18   2.0000      -0.403225       -10.9723
  19   2.0000      -0.391768       -10.6605
  20   2.0000      -0.366094        -9.9619
  21   2.0000      -0.327584        -8.9140
  22   2.0000      -0.318926        -8.6784
  23   2.0000      -0.298225        -8.1151
  24   2.0000      -0.264804        -7.2057
  25   2.0000      -0.247174        -6.7260
  26   2.0000      -0.226812        -6.1719
  27   0.0000      -0.067272        -1.8306
  28   0.0000      -0.043695        -1.1890
  29   0.0000       0.005863         0.1595
  30   0.0000       0.006618         0.1801
  31   0.0000       0.022599         0.6149

MULLIKEN ATOMIC CHARGES
-----------------------
   0 C :   -0.468161
   1 C :    0.002690
   2 C :   -0.468591
   3 C :   -1.289369
   4 C :    1.586663
   5 C :   -1.291459
   6 H :   -0.390660
   7 C :    1.267851
   8 C :   -0.341929
   9 H :    0.355175
  10 H :   -0.390363
  11 H :    0.518060
  12 H :    0.392084
  13 H :    0.518009
Sum of atomic charges:    0.0000000

LOEWDIN ATOMIC CHARGES
----------------------
   0 C :    0.195396
   1 C :    0.192528
   2 C :    0.195401
   3 C :    0.191369
   4 C :   -0.234893
   5 C :    0.191378
   6 H :   -0.164034
   7 C :   -0.020181
   8 C :    0.402458
   9 H :   -0.281981
  10 H :   -0.164033
  11 H :   -0.167618
  12 H :   -0.168170
  13 H :   -0.167620

  Mayer bond orders larger than 0.100000
B(  0-C ,  1-C ) :   1.0173 B(  0-C ,  3-C ) :   0.1661 B(  0-C ,  4-C ) :   0.5411
B(  0-C ,  5-C ) :   1.2464 B(  0-C ,  6-H ) :  -0.1658 B(  0-C ,  7-C ) :  -0.1738
B(  0-C ,  8-C ) :  -0.1845 B(  0-C , 10-H ) :  -0.1072 B(  0-C , 13-H ) :   0.5797
B(  1-C ,  2-C ) :   1.0170 B(  1-C ,  3-C ) :  -0.3376 B(  1-C ,  4-C ) :  -0.4389
B(  1-C ,  5-C ) :  -0.3372 B(  1-C ,  6-H ) :  -0.1005 B(  1-C ,  7-C ) :   0.4453
B(  1-C ,  8-C ) :   0.2964 B(  1-C , 10-H ) :  -0.1004 B(  1-C , 12-H ) :   0.7375
B(  2-C ,  3-C ) :   1.2463 B(  2-C ,  4-C ) :   0.5422 B(  2-C ,  5-C ) :   0.1665
B(  2-C ,  6-H ) :  -0.1069 B(  2-C ,  7-C ) :  -0.1740 B(  2-C ,  8-C ) :  -0.1852
B(  2-C , 10-H ) :  -0.1654 B(  2-C , 11-H ) :   0.5789 B(  3-C ,  4-C ) :   0.2149
B(  3-C ,  5-C ) :  -0.5900 B(  3-C ,  6-H ) :   0.3691 B(  3-C ,  7-C ) :   0.3732
B(  3-C ,  8-C ) :  -0.3084 B(  3-C , 10-H ) :   2.3902 B(  3-C , 11-H ) :  -0.2218
B(  4-C ,  5-C ) :   0.2127 B(  4-C ,  7-C ) :  -0.3091 B(  4-C ,  8-C ) :   1.0467
B(  4-C ,  9-H ) :   0.1224 B(  5-C ,  6-H ) :   2.3911 B(  5-C ,  7-C ) :   0.3727
B(  5-C ,  8-C ) :  -0.3088 B(  5-C , 10-H ) :   0.3686 B(  5-C , 13-H ) :  -0.2222
B(  6-H ,  7-C ) :  -0.4825 B(  6-H ,  8-C ) :  -0.7299 B(  6-H , 10-H ) :   0.5765
B(  6-H , 11-H ) :  -0.1278 B(  7-C ,  8-C ) :   2.9042 B(  7-C ,  9-H ) :  -0.1098
B(  7-C , 10-H ) :  -0.4812 B(  7-C , 11-H ) :   0.1070 B(  7-C , 13-H ) :   0.1075
B(  8-C ,  9-H ) :   1.0494 B(  8-C , 10-H ) :  -0.7290 B(  8-C , 11-H ) :   0.2837
B(  8-C , 12-H ) :  -0.1228 B(  8-C , 13-H ) :   0.2838 B( 10-H , 13-H ) :  -0.1277

Dispersion correction           -0.004112295
FINAL SINGLE POINT ENERGY      -308.331771230631

DIPOLE MOMENT
-------------

Method             : SCF
Type of density    : Electron Density
Multiplicity       :   1
Irrep              :   0
Energy             :  -308.3276589351353891 Eh
Relativity type    :
Basis              : AO
                                X                 Y                 Z
Electronic contribution:     -1.767005565       0.000045389      -0.000436999
Nuclear contribution   :      2.227582411      -0.000665596       0.000875711
                        -----------------------------------------
Total Dipole Moment    :      0.460576846      -0.000620207       0.000438711
                        -----------------------------------------
Magnitude (a.u.)       :      0.460577472
Magnitude (Debye)      :      1.170694898

Rotational constants in cm-1:             0.189401             0.050851             0.040088
Rotational constants in MHz :          5678.091161          1524.476874          1201.810057

                             ****ORCA TERMINATED NORMALLY****
TOTAL RUN TIME: 0 days 0 hours 1 minutes 40 seconds 985 msec
