                         Program Version 6.0.0  -   RELEASE  -
|  1> !r2SCAN aug-cc-pVTZ d3 TightSCF SlowConv RIJCOSX defgrid2
|  2>
|  3> %pal
|  4> nprocs 4
|  5> end
|  6>
|  7> %scf
|  8> MaxIter 1500
|  9> end
| 10>
| 11> %maxcore 3000
| 12>
| 13> !CPCM
| 14> %cpcm smd true
| 15> SMDsolvent "MeCN"
| 16> surfacetype gepol_ses
| 17> rsolv 2.19
| 18> end
| 19>
| 20> * xyz 0 1
| 21> C          -1.20884186796781     -0.02278058914418      0.00003742233159
| 22> C          -1.20709913160620      1.38045218788773      0.00016703364523
| 23> C           0.00003556987027      2.07238258705511      0.00002257197541
| 24> C           1.20714414585697      1.38040506278913     -0.00023783478174
| 25> C           1.20883517896309     -0.02282737272555     -0.00031075934043
| 26> C          -0.00001674938231     -0.72722788932514     -0.00021243594479
| 27> H          -0.00003875372447     -1.81890955720448     -0.00030359455707
| 28> C           2.45039282749013     -0.73822162648839     -0.00031862016213
| 29> N           3.45665781045797     -1.31294485312421      0.00119491286029
| 30> H           2.15765649045058      1.91893621365633     -0.00034701835738
| 31> H           0.00005970442079      3.16546819660540      0.00011390445176
| 32> H          -2.15759482922730      1.91901494079977      0.00036663554396
| 33> C          -2.45042247590246     -0.73813543850926      0.00010406543100
| 34> N          -3.45670371969924     -1.31283236227226     -0.00021618309569
| 35> *
| 36>
| 37>                          ****END OF INPUT****

CARTESIAN COORDINATES (ANGSTROEM)
---------------------------------
  C     -1.208842   -0.022781    0.000037
  C     -1.207099    1.380452    0.000167
  C      0.000036    2.072383    0.000023
  C      1.207144    1.380405   -0.000238
  C      1.208835   -0.022827   -0.000311
  C     -0.000017   -0.727228   -0.000212
  H     -0.000039   -1.818910   -0.000304
  C      2.450393   -0.738222   -0.000319
  N      3.456658   -1.312945    0.001195
  H      2.157656    1.918936   -0.000347
  H      0.000060    3.165468    0.000114
  H     -2.157595    1.919015    0.000367
  C     -2.450422   -0.738135    0.000104
  N     -3.456704   -1.312832   -0.000216

 Total Charge           Charge          ....    0
 Multiplicity           Mult            ....    1
 Number of Electrons    NEL             ....   66
 Basis Dimension        Dim             ....  552

ORBITAL ENERGIES
----------------

  NO   OCC          E(Eh)            E(eV)
   0   2.0000     -14.177921      -385.8008
   1   2.0000     -14.177920      -385.8008
   2   2.0000     -10.104215      -274.9497
   3   2.0000     -10.104203      -274.9493
   4   2.0000     -10.096720      -274.7457
   5   2.0000     -10.096714      -274.7455
   6   2.0000     -10.086178      -274.4589
   7   2.0000     -10.078408      -274.2474
   8   2.0000     -10.078389      -274.2469
   9   2.0000     -10.067505      -273.9507
  10   2.0000      -0.896301       -24.3896
  11   2.0000      -0.891352       -24.2549
  12   2.0000      -0.859798       -23.3963
  13   2.0000      -0.775321       -21.0976
  14   2.0000      -0.756048       -20.5731
  15   2.0000      -0.638469       -17.3736
  16   2.0000      -0.634244       -17.2587
  17   2.0000      -0.565979       -15.4011
  18   2.0000      -0.480669       -13.0797
  19   2.0000      -0.478576       -13.0227
  20   2.0000      -0.465200       -12.6587
  21   2.0000      -0.420525       -11.4431
  22   2.0000      -0.403118       -10.9694
  23   2.0000      -0.369553       -10.0560
  24   2.0000      -0.365103        -9.9350
  25   2.0000      -0.364890        -9.9292
  26   2.0000      -0.353878        -9.6295
  27   2.0000      -0.348805        -9.4915
  28   2.0000      -0.330019        -8.9803
  29   2.0000      -0.326929        -8.8962
  30   2.0000      -0.326388        -8.8815
  31   2.0000      -0.267220        -7.2714
  32   2.0000      -0.263724        -7.1763
  33   0.0000      -0.099718        -2.7135
  34   0.0000      -0.085039        -2.3140
  35   0.0000      -0.022301        -0.6068
  36   0.0000      -0.007188        -0.1956
  37   0.0000       0.000424         0.0115

MULLIKEN ATOMIC CHARGES
-----------------------
   0 C :    1.458679
   1 C :   -0.759168
   2 C :   -0.510630
   3 C :   -0.759165
   4 C :    1.458675
   5 C :   -0.934555
   6 H :   -0.050197
   7 C :    0.491463
   8 N :   -0.834696
   9 H :    0.120405
  10 H :    0.542022
  11 H :    0.120408
  12 C :    0.491454
  13 N :   -0.834695
Sum of atomic charges:   -0.0000000

LOEWDIN ATOMIC CHARGES
----------------------
   0 C :   -0.181216
   1 C :    0.229434
   2 C :    0.242917
   3 C :    0.229434
   4 C :   -0.181216
   5 C :    0.220291
   6 H :   -0.142367
   7 C :   -0.232576
   8 N :    0.245845
   9 H :   -0.146053
  10 H :   -0.151708
  11 H :   -0.146052
  12 C :   -0.232576
  13 N :    0.245844

  Mayer bond orders larger than 0.100000
B(  0-C ,  1-C ) :   0.2362 B(  0-C ,  2-C ) :   0.1354 B(  0-C ,  4-C ) :   0.3986
B(  0-C ,  5-C ) :   0.3535 B(  0-C ,  6-H ) :  -0.1861 B(  0-C , 11-H ) :  -0.1385
B(  0-C , 12-C ) :   0.5967 B(  1-C ,  2-C ) :   1.1419 B(  1-C ,  3-C ) :  -0.1913
B(  1-C ,  5-C ) :  -0.2078 B(  1-C , 11-H ) :   1.2034 B(  1-C , 12-C ) :   0.3388
B(  1-C , 13-N ) :   0.1274 B(  2-C ,  3-C ) :   1.1419 B(  2-C ,  4-C ) :   0.1354
B(  2-C , 10-H ) :   0.5134 B(  3-C ,  4-C ) :   0.2362 B(  3-C ,  5-C ) :  -0.2078
B(  3-C ,  7-C ) :   0.3388 B(  3-C ,  8-N ) :   0.1274 B(  3-C ,  9-H ) :   1.2034
B(  4-C ,  5-C ) :   0.3535 B(  4-C ,  6-H ) :  -0.1861 B(  4-C ,  7-C ) :   0.5968
B(  4-C ,  9-H ) :  -0.1385 B(  5-C ,  6-H ) :   1.4126 B(  5-C ,  7-C ) :   0.1321
B(  5-C ,  8-N ) :   0.1008 B(  5-C , 12-C ) :   0.1321 B(  5-C , 13-N ) :   0.1008
B(  7-C ,  8-N ) :   1.7210 B(  7-C , 12-C ) :   0.2126 B( 12-C , 13-N ) :   1.7210

Dispersion correction           -0.004806338
FINAL SINGLE POINT ENERGY      -416.661647196764

DIPOLE MOMENT
-------------

Method             : SCF
Type of density    : Electron Density
Multiplicity       :   1
Irrep              :   0
Energy             :  -416.6568408585577004 Eh
Relativity type    :
Basis              : AO
                                X                 Y                 Z
Electronic contribution:     -0.000042862      -2.444878306      -0.000651558
Nuclear contribution   :      0.000083993       4.864690658      -0.000287721
                        -----------------------------------------
Total Dipole Moment    :      0.000041131       2.419812352      -0.000939279
                        -----------------------------------------
Magnitude (a.u.)       :      2.419812535
Magnitude (Debye)      :      6.150674661

Rotational constants in cm-1:             0.090653             0.030186             0.022645
Rotational constants in MHz :          2717.694225           904.950181           678.890264

                             ****ORCA TERMINATED NORMALLY****
TOTAL RUN TIME: 0 days 0 hours 1 minutes 43 seconds 103 msec
