                         Program Version 6.0.0  -   RELEASE  -
|  1> !r2SCAN aug-cc-pVTZ d3 TightSCF SlowConv RIJCOSX defgrid2
|  2>
|  3> %pal
|  4> nprocs 4
|  5> end
|  6>
|  7> %scf
|  8> MaxIter 1500
|  9> end
| 10>
| 11> %maxcore 3000
| 12>
| 13> !CPCM
| 14> %cpcm smd true
| 15> SMDsolvent "MeCN"
| 16> surfacetype gepol_ses
| 17> rsolv 2.19
| 18> end
| 19>
| 20> * xyz 1 2
| 21> C           0.76309641907195     -1.16293983433003      0.23718381873604
| 22> C          -0.76304171601446     -1.16296952747842     -0.23724555362178
| 23> H          -1.27590174641137     -2.02340834769785      0.21800270990120
| 24> H          -0.77362876837767     -1.19896716686552     -1.34057732579590
| 25> O          -1.30210126379069     -0.00003866110666      0.26158364977248
| 26> C          -0.76310446688411      1.16294442598402     -0.23720418219692
| 27> C           0.76303513090937      1.16298601934474      0.23722214632434
| 28> H           1.27589626879449      2.02341629109980     -0.21804063751063
| 29> H           0.77362940968102      1.19899371952034      1.34055360051981
| 30> O           1.30210147370824      0.00004813344550     -0.26159746316919
| 31> H          -1.27602354622748      2.02334978586835      0.21803685187514
| 32> H          -0.77366667806753      1.19894468683083     -1.34053597047731
| 33> H           1.27601869897724     -2.02334025573413     -0.21806265273971
| 34> H           0.77366218463101     -1.19894196888098      1.34051380838241
| 35> *
| 36>
| 37>                          ****END OF INPUT****

CARTESIAN COORDINATES (ANGSTROEM)
---------------------------------
  C      0.763096   -1.162940    0.237184
  C     -0.763042   -1.162970   -0.237246
  H     -1.275902   -2.023408    0.218003
  H     -0.773629   -1.198967   -1.340577
  O     -1.302101   -0.000039    0.261584
  C     -0.763104    1.162944   -0.237204
  C      0.763035    1.162986    0.237222
  H      1.275896    2.023416   -0.218041
  H      0.773629    1.198994    1.340554
  O      1.302101    0.000048   -0.261597
  H     -1.276024    2.023350    0.218037
  H     -0.773667    1.198945   -1.340536
  H      1.276019   -2.023340   -0.218063
  H      0.773662   -1.198942    1.340514

 Total Charge           Charge          ....    1
 Multiplicity           Mult            ....    2
 Number of Electrons    NEL             ....   47
 Basis Dimension        Dim             ....  460

ORBITAL ENERGIES
----------------
                 SPIN UP ORBITALS
  NO   OCC          E(Eh)            E(eV)
   0   1.0000     -19.070174      -518.9258
   1   1.0000     -19.070173      -518.9258
   2   1.0000     -10.140096      -275.9260
   3   1.0000     -10.140092      -275.9259
   4   1.0000     -10.140023      -275.9241
   5   1.0000     -10.140021      -275.9240
   6   1.0000      -1.131073       -30.7781
   7   1.0000      -1.093836       -29.7648
   8   1.0000      -0.805852       -21.9283
   9   1.0000      -0.706453       -19.2236
  10   1.0000      -0.702023       -19.1030
  11   1.0000      -0.596869       -16.2416
  12   1.0000      -0.541592       -14.7375
  13   1.0000      -0.528095       -14.3702
  14   1.0000      -0.501069       -13.6348
  15   1.0000      -0.495012       -13.4700
  16   1.0000      -0.488436       -13.2910
  17   1.0000      -0.424121       -11.5409
  18   1.0000      -0.406086       -11.0502
  19   1.0000      -0.394995       -10.7484
  20   1.0000      -0.376557       -10.2466
  21   1.0000      -0.338768        -9.2183
  22   1.0000      -0.332888        -9.0584
  23   1.0000      -0.274502        -7.4696
  24   0.0000       0.009429         0.2566
  25   0.0000       0.021091         0.5739
  26   0.0000       0.025652         0.6980
  27   0.0000       0.027054         0.7362
  28   0.0000       0.027800         0.7565

                 SPIN DOWN ORBITALS
  NO   OCC          E(Eh)            E(eV)
   0   1.0000     -19.060034      -518.6499
   1   1.0000     -19.060034      -518.6499
   2   1.0000     -10.138204      -275.8746
   3   1.0000     -10.138201      -275.8745
   4   1.0000     -10.138130      -275.8725
   5   1.0000     -10.138128      -275.8725
   6   1.0000      -1.117338       -30.4043
   7   1.0000      -1.077859       -29.3300
   8   1.0000      -0.798988       -21.7416
   9   1.0000      -0.702568       -19.1179
  10   1.0000      -0.686690       -18.6858
  11   1.0000      -0.589934       -16.0529
  12   1.0000      -0.528255       -14.3746
  13   1.0000      -0.519892       -14.1470
  14   1.0000      -0.497251       -13.5309
  15   1.0000      -0.490832       -13.3562
  16   1.0000      -0.474491       -12.9116
  17   1.0000      -0.395369       -10.7585
  18   1.0000      -0.393561       -10.7093
  19   1.0000      -0.391479       -10.6527
  20   1.0000      -0.368133       -10.0174
  21   1.0000      -0.326504        -8.8846
  22   1.0000      -0.316655        -8.6166
  23   0.0000      -0.232738        -6.3331
  24   0.0000       0.011546         0.3142
  25   0.0000       0.022542         0.6134
  26   0.0000       0.028747         0.7822
  27   0.0000       0.028856         0.7852

MULLIKEN ATOMIC CHARGES AND SPIN POPULATIONS
--------------------------------------------
   0 C :   -0.068733    0.065003
   1 C :   -0.068698    0.065008
   2 H :    0.286487    0.014475
   3 H :    0.222945    0.012167
   4 O :   -0.381427    0.316699
   5 C :   -0.068739    0.065003
   6 C :   -0.068684    0.065009
   7 H :    0.286484    0.014480
   8 H :    0.222928    0.012166
   9 O :   -0.381436    0.316700
  10 H :    0.286522    0.014483
  11 H :    0.222914    0.012165
  12 H :    0.286524    0.014478
  13 H :    0.222914    0.012165
Sum of atomic charges         :    1.0000000

LOEWDIN ATOMIC CHARGES AND SPIN POPULATIONS
-------------------------------------------
   0 C :    0.142222    0.096015
   1 C :    0.142213    0.096015
   2 H :   -0.111915    0.014235
   3 H :   -0.114962    0.013877
   4 O :    0.669326    0.251746
   5 C :    0.142219    0.096015
   6 C :    0.142217    0.096015
   7 H :   -0.111917    0.014235
   8 H :   -0.114962    0.013877
   9 O :    0.669323    0.251747
  10 H :   -0.111914    0.014235
  11 H :   -0.114966    0.013877
  12 H :   -0.111915    0.014235
  13 H :   -0.114968    0.013876

  Mayer bond orders larger than 0.100000
B(  0-C ,  1-C ) :   0.7970 B(  0-C ,  6-C ) :   0.1231 B(  0-C ,  9-O ) :   0.9058
B(  0-C , 12-H ) :   0.8921 B(  0-C , 13-H ) :   0.9300 B(  1-C ,  2-H ) :   0.8922
B(  1-C ,  3-H ) :   0.9299 B(  1-C ,  4-O ) :   0.9058 B(  1-C ,  5-C ) :   0.1231
B(  4-O ,  5-C ) :   0.9058 B(  4-O ,  9-O ) :   0.1344 B(  5-C ,  6-C ) :   0.7970
B(  5-C , 10-H ) :   0.8921 B(  5-C , 11-H ) :   0.9300 B(  6-C ,  7-H ) :   0.8922
B(  6-C ,  8-H ) :   0.9300 B(  6-C ,  9-O ) :   0.9058

Dispersion correction           -0.002937222
FINAL SINGLE POINT ENERGY      -307.394959304750

DIPOLE MOMENT
-------------

Method             : SCF
Type of density    : Electron Density
Multiplicity       :   2
Irrep              :   0
Energy             :  -307.3920220825650631 Eh
Relativity type    :
Basis              : AO
                                X                 Y                 Z
Electronic contribution:     -0.000016297      -0.000003874       0.000023380
Nuclear contribution   :      0.000002668       0.000005347      -0.000029732
                        -----------------------------------------
Total Dipole Moment    :     -0.000013628       0.000001473      -0.000006352
                        -----------------------------------------
Magnitude (a.u.)       :      0.000015108
Magnitude (Debye)      :      0.000038401

Rotational constants in cm-1:             0.169249             0.162821             0.094443
Rotational constants in MHz :          5073.947219          4881.263290          2831.336454

                             ****ORCA TERMINATED NORMALLY****
TOTAL RUN TIME: 0 days 0 hours 1 minutes 38 seconds 87 msec
