                         Program Version 6.0.0  -   RELEASE  -
|  1> !TPSSh aug-cc-pVTZ d3 TightSCF SlowConv RIJCOSX defgrid2
|  2>
|  3> %pal
|  4> nprocs 4
|  5> end
|  6>
|  7> %scf
|  8> MaxIter 1500
|  9> end
| 10>
| 11> %maxcore 3000
| 12>
| 13> !CPCM
| 14> %cpcm smd true
| 15> SMDsolvent "MeCN"
| 16> surfacetype gepol_ses
| 17> rsolv 2.19
| 18> end
| 19>
| 20> * xyz 1 2
| 21> C          -0.34270275561118      0.84711240516987     -0.00000461392678
| 22> C          -1.62114214149599      0.28310666085248      0.00005036258773
| 23> C          -1.76655845984461     -1.14534797316706      0.00015902441429
| 24> C          -0.64047775510568     -1.96124661886859      0.00020951229865
| 25> C           0.62711717490611     -1.39778631503778      0.00015498102973
| 26> C           0.79382657036915      0.03758278475822      0.00002872344792
| 27> C           2.09240943022637      0.64547974379403     -0.00003830185520
| 28> C           3.29430838690790     -0.01032166453559      0.00000281703843
| 29> C           4.60760132054960      0.65947907504340     -0.00004889316533
| 30> H           5.19809781171836      0.33504540056372     -0.87962451212125
| 31> H           5.19805381830583      0.33523637975460      0.87962749612829
| 32> H           4.53047503370681      1.75742824935659     -0.00016451192059
| 33> H           3.31318609028762     -1.10737767604801      0.00008430734855
| 34> H           2.10926613216247      1.74179274962735     -0.00012792598686
| 35> H           1.50121349078302     -2.05141955010833      0.00019397364887
| 36> H          -0.75915141594404     -3.04749102718735      0.00029347430122
| 37> H          -2.76100240605802     -1.59669233225998      0.00020413991672
| 38> O          -2.63949171539410      1.10870001849501     -0.00000818654028
| 39> C          -3.98618237230029      0.65565691136091      0.00006847700849
| 40> H          -4.60288239689184      1.56371892248403      0.00002378375357
| 41> H          -4.19996760244314      0.06636471722196      0.90775693220812
| 42> H          -4.20002007511970      0.06623874429631     -0.90752475328728
| 43> H          -0.25881356371464      1.93607439443420     -0.00008040632701
| 44> *
| 45>
| 46>                          ****END OF INPUT****

CARTESIAN COORDINATES (ANGSTROEM)
---------------------------------
  C     -0.342703    0.847112   -0.000005
  C     -1.621142    0.283107    0.000050
  C     -1.766558   -1.145348    0.000159
  C     -0.640478   -1.961247    0.000210
  C      0.627117   -1.397786    0.000155
  C      0.793827    0.037583    0.000029
  C      2.092409    0.645480   -0.000038
  C      3.294308   -0.010322    0.000003
  C      4.607601    0.659479   -0.000049
  H      5.198098    0.335045   -0.879625
  H      5.198054    0.335236    0.879627
  H      4.530475    1.757428   -0.000165
  H      3.313186   -1.107378    0.000084
  H      2.109266    1.741793   -0.000128
  H      1.501213   -2.051420    0.000194
  H     -0.759151   -3.047491    0.000293
  H     -2.761002   -1.596692    0.000204
  O     -2.639492    1.108700   -0.000008
  C     -3.986182    0.655657    0.000068
  H     -4.602882    1.563719    0.000024
  H     -4.199968    0.066365    0.907757
  H     -4.200020    0.066239   -0.907525
  H     -0.258814    1.936074   -0.000080

 Total Charge           Charge          ....    1
 Multiplicity           Mult            ....    2
 Number of Electrons    NEL             ....   79
 Basis Dimension        Dim             ....  782

ORBITAL ENERGIES
----------------
                 SPIN UP ORBITALS
  NO   OCC          E(Eh)            E(eV)
   0   1.0000     -19.132129      -520.6117
   1   1.0000     -10.225689      -278.2551
   2   1.0000     -10.177063      -276.9320
   3   1.0000     -10.176950      -276.9289
   4   1.0000     -10.172871      -276.8179
   5   1.0000     -10.171537      -276.7816
   6   1.0000     -10.169731      -276.7324
   7   1.0000     -10.154529      -276.3188
   8   1.0000     -10.150468      -276.2083
   9   1.0000     -10.142091      -275.9803
  10   1.0000     -10.124437      -275.4999
  11   1.0000      -1.099456       -29.9177
  12   1.0000      -0.878560       -23.9068
  13   1.0000      -0.818990       -22.2858
  14   1.0000      -0.776248       -21.1228
  15   1.0000      -0.767202       -20.8766
  16   1.0000      -0.708454       -19.2780
  17   1.0000      -0.690916       -18.8008
  18   1.0000      -0.620949       -16.8969
  19   1.0000      -0.613953       -16.7065
  20   1.0000      -0.561901       -15.2901
  21   1.0000      -0.536446       -14.5974
  22   1.0000      -0.505145       -13.7457
  23   1.0000      -0.498287       -13.5591
  24   1.0000      -0.482207       -13.1215
  25   1.0000      -0.474378       -12.9085
  26   1.0000      -0.444838       -12.1047
  27   1.0000      -0.431184       -11.7331
  28   1.0000      -0.416143       -11.3238
  29   1.0000      -0.408960       -11.1284
  30   1.0000      -0.402086       -10.9413
  31   1.0000      -0.396026       -10.7764
  32   1.0000      -0.383271       -10.4293
  33   1.0000      -0.368273       -10.0212
  34   1.0000      -0.357042        -9.7156
  35   1.0000      -0.354751        -9.6533
  36   1.0000      -0.334810        -9.1106
  37   1.0000      -0.319297        -8.6885
  38   1.0000      -0.255669        -6.9571
  39   1.0000      -0.252323        -6.8660
  40   0.0000      -0.095595        -2.6013
  41   0.0000      -0.050360        -1.3704
  42   0.0000      -0.006773        -0.1843
  43   0.0000      -0.000175        -0.0048
  44   0.0000       0.001561         0.0425

                 SPIN DOWN ORBITALS
  NO   OCC          E(Eh)            E(eV)
   0   1.0000     -19.129679      -520.5450
   1   1.0000     -10.225031      -278.2372
   2   1.0000     -10.177158      -276.9345
   3   1.0000     -10.176010      -276.9033
   4   1.0000     -10.167480      -276.6712
   5   1.0000     -10.166019      -276.6314
   6   1.0000     -10.165773      -276.6248
   7   1.0000     -10.153723      -276.2968
   8   1.0000     -10.152567      -276.2654
   9   1.0000     -10.142786      -275.9992
  10   1.0000     -10.124576      -275.5037
  11   1.0000      -1.095402       -29.8074
  12   1.0000      -0.872683       -23.7469
  13   1.0000      -0.812315       -22.1042
  14   1.0000      -0.774505       -21.0753
  15   1.0000      -0.759847       -20.6765
  16   1.0000      -0.702548       -19.1173
  17   1.0000      -0.687892       -18.7185
  18   1.0000      -0.618250       -16.8234
  19   1.0000      -0.609921       -16.5968
  20   1.0000      -0.559079       -15.2133
  21   1.0000      -0.534177       -14.5357
  22   1.0000      -0.502991       -13.6871
  23   1.0000      -0.495667       -13.4878
  24   1.0000      -0.474421       -12.9097
  25   1.0000      -0.471591       -12.8326
  26   1.0000      -0.443934       -12.0801
  27   1.0000      -0.430470       -11.7137
  28   1.0000      -0.407512       -11.0890
  29   1.0000      -0.406879       -11.0717
  30   1.0000      -0.394046       -10.7225
  31   1.0000      -0.391750       -10.6601
  32   1.0000      -0.382040       -10.3958
  33   1.0000      -0.367071        -9.9885
  34   1.0000      -0.353382        -9.6160
  35   1.0000      -0.344563        -9.3760
  36   1.0000      -0.332992        -9.0612
  37   1.0000      -0.304204        -8.2778
  38   1.0000      -0.244530        -6.6540
  39   0.0000      -0.198324        -5.3967
  40   0.0000      -0.072607        -1.9757
  41   0.0000      -0.040354        -1.0981
  42   0.0000      -0.006067        -0.1651
  43   0.0000       0.002099         0.0571

MULLIKEN ATOMIC CHARGES AND SPIN POPULATIONS
--------------------------------------------
   0 C :   -0.526146   -0.076894
   1 C :    0.733127    0.060651
   2 C :    0.025044    0.358261
   3 C :   -0.656003   -0.171961
   4 C :   -0.322685    0.384488
   5 C :    1.223610    0.065011
   6 C :    0.070904    0.065904
   7 C :   -0.387621    0.245736
   8 C :   -0.299798   -0.039302
   9 H :    0.150497    0.019246
  10 H :    0.151467    0.019226
  11 H :    0.134787   -0.003006
  12 H :    0.092821   -0.008614
  13 H :    0.024716   -0.000849
  14 H :    0.249994    0.008104
  15 H :    0.505431   -0.008240
  16 H :    0.182517    0.000675
  17 O :   -0.621797    0.077518
  18 C :   -0.225809   -0.002911
  19 H :    0.037531    0.000766
  20 H :    0.209835    0.002037
  21 H :    0.209291    0.002057
  22 H :    0.038287    0.002097
Sum of atomic charges         :    1.0000000

LOEWDIN ATOMIC CHARGES AND SPIN POPULATIONS
-------------------------------------------
   0 C :    0.252714   -0.003207
   1 C :   -0.348352    0.077342
   2 C :    0.289492    0.173836
   3 C :    0.264789    0.044306
   4 C :    0.286812    0.181708
   5 C :   -0.095586    0.082840
   6 C :    0.271954    0.078023
   7 C :    0.279013    0.131856
   8 C :    0.598921    0.042228
   9 H :   -0.143584    0.010052
  10 H :   -0.143620    0.010052
  11 H :   -0.157873    0.000920
  12 H :   -0.159334    0.020469
  13 H :   -0.155668    0.007819
  14 H :   -0.161071    0.036301
  15 H :   -0.146733   -0.009765
  16 H :   -0.156198    0.036401
  17 O :    0.637683    0.070137
  18 C :    0.397257    0.008371
  19 H :   -0.160210   -0.000285
  20 H :   -0.149955    0.002346
  21 H :   -0.149922    0.002346
  22 H :   -0.150528   -0.004098

  Mayer bond orders larger than 0.100000
B(  0-C ,  1-C ) :   0.7465 B(  0-C ,  4-C ) :  -0.1083 B(  0-C ,  5-C ) :   0.4820
B(  0-C ,  6-C ) :  -0.3340 B(  0-C ,  7-C ) :   0.1279 B(  0-C , 17-O ) :   0.4741
B(  0-C , 22-H ) :   1.0925 B(  1-C ,  2-C ) :   1.0813 B(  1-C ,  4-C ) :  -0.1410
B(  1-C , 18-C ) :   0.1415 B(  2-C ,  3-C ) :   1.2652 B(  2-C ,  4-C ) :   0.1020
B(  2-C ,  5-C ) :  -0.1283 B(  2-C , 16-H ) :   0.9190 B(  2-C , 17-O ) :  -0.2378
B(  2-C , 18-C ) :  -0.1244 B(  3-C ,  4-C ) :   1.3471 B(  3-C ,  5-C ) :  -0.1358
B(  3-C , 15-H ) :   0.3528 B(  4-C ,  5-C ) :   0.7509 B(  4-C ,  7-C ) :   0.1163
B(  4-C , 14-H ) :   0.8181 B(  4-C , 15-H ) :   0.1133 B(  5-C ,  6-C ) :   0.3291
B(  5-C ,  7-C ) :  -0.1771 B(  5-C , 12-H ) :  -0.1476 B(  5-C , 17-O ) :   0.1828
B(  6-C ,  7-C ) :   0.9560 B(  6-C ,  8-C ) :  -0.1014 B(  6-C , 12-H ) :   0.1561
B(  6-C , 13-H ) :   1.1001 B(  7-C ,  8-C ) :   1.1408 B(  7-C , 11-H ) :   0.1221
B(  7-C , 12-H ) :   1.1790 B(  8-C ,  9-H ) :   0.9243 B(  8-C , 10-H ) :   0.9233
B(  8-C , 11-H ) :   0.9308 B( 17-O , 18-C ) :   0.9530 B( 18-C , 19-H ) :   1.0535
B( 18-C , 20-H ) :   0.9271 B( 18-C , 21-H ) :   0.9278

Dispersion correction           -0.026561230
FINAL SINGLE POINT ENERGY      -463.518423646187

DIPOLE MOMENT
-------------

Method             : SCF
Type of density    : Electron Density
Multiplicity       :   2
Irrep              :   0
Energy             :  -463.4918624166857057 Eh
Relativity type    :
Basis              : AO
                                X                 Y                 Z
Electronic contribution:     -4.544513914      -0.802266462      -0.000345246
Nuclear contribution   :      4.745595693      -0.067246961       0.000048364
                        -----------------------------------------
Total Dipole Moment    :      0.201081779      -0.869513423      -0.000296882
                        -----------------------------------------
Magnitude (a.u.)       :      0.892461519
Magnitude (Debye)      :      2.268456905

Rotational constants in cm-1:             0.103199             0.017039             0.014706
Rotational constants in MHz :          3093.817468           510.805508           440.883670

                             ****ORCA TERMINATED NORMALLY****
TOTAL RUN TIME: 0 days 0 hours 13 minutes 26 seconds 937 msec
