                         Program Version 6.0.0  -   RELEASE  -
|  1> !B3LYP aug-cc-pVTZ d3 TightSCF SlowConv RIJCOSX defgrid2
|  2>
|  3> %pal
|  4> nprocs 4
|  5> end
|  6>
|  7> %scf
|  8> MaxIter 1500
|  9> end
| 10>
| 11> %maxcore 3000
| 12>
| 13> !CPCM
| 14> %cpcm smd true
| 15> SMDsolvent "MeCN"
| 16> surfacetype gepol_ses
| 17> rsolv 2.19
| 18> end
| 19>
| 20> * xyz 1 2
| 21> C          -1.06386344655545     -0.91329923764825      0.00354757702725
| 22> C           0.22163478430249     -1.40337223094175      0.04858043804036
| 23> C           0.53945025913243     -2.86197889510622      0.10169084984005
| 24> H          -0.37259520711996     -3.47715377611844      0.08589055463224
| 25> H           1.10475563615799     -3.10497153663765      1.01926780026075
| 26> H           1.17109714187519     -3.15621662267989     -0.75541137044371
| 27> C           1.27360747036098     -0.44465743263894      0.04352288846465
| 28> C           1.04730295949006      0.97973504194292     -0.00482697142823
| 29> C           2.21826802319715      1.89495355633420     -0.00501918248716
| 30> H           2.87852806587755      1.67773079367681     -0.86595049735279
| 31> H           1.91752465121824      2.95187818048041     -0.04884973003982
| 32> H           2.83071273968936      1.73802851771994      0.90320153771289
| 33> C          -0.25714882442837      1.42208817632644     -0.04842885905841
| 34> C          -1.33212517936375      0.50020425527138     -0.04514025959234
| 35> C          -2.73438084453214      0.95960010306211     -0.09132088440263
| 36> H          -3.24557910809032      0.52601718911780     -0.97488501067325
| 37> H          -2.82792542810869      2.05448934777564     -0.12005666171949
| 38> H          -3.29093535822372      0.56719702138835      0.78377537035428
| 39> H          -0.47441598823820      2.49274908825876     -0.08618140398361
| 40> H           2.30992878348264     -0.80041103745640      0.07738415126096
| 41> H          -1.91351563012347     -1.60314880212721      0.00441476358802
| 42> *
| 43>
| 44>                          ****END OF INPUT****

CARTESIAN COORDINATES (ANGSTROEM)
---------------------------------
  C     -1.063863   -0.913299    0.003548
  C      0.221635   -1.403372    0.048580
  C      0.539450   -2.861979    0.101691
  H     -0.372595   -3.477154    0.085891
  H      1.104756   -3.104972    1.019268
  H      1.171097   -3.156217   -0.755411
  C      1.273607   -0.444657    0.043523
  C      1.047303    0.979735   -0.004827
  C      2.218268    1.894954   -0.005019
  H      2.878528    1.677731   -0.865950
  H      1.917525    2.951878   -0.048850
  H      2.830713    1.738029    0.903202
  C     -0.257149    1.422088   -0.048429
  C     -1.332125    0.500204   -0.045140
  C     -2.734381    0.959600   -0.091321
  H     -3.245579    0.526017   -0.974885
  H     -2.827925    2.054489   -0.120057
  H     -3.290935    0.567197    0.783775
  H     -0.474416    2.492749   -0.086181
  H      2.309929   -0.800411    0.077384
  H     -1.913516   -1.603149    0.004415

 Total Charge           Charge          ....    1
 Multiplicity           Mult            ....    2
 Number of Electrons    NEL             ....   65
 Basis Dimension        Dim             ....  690

ORBITAL ENERGIES
----------------
                 SPIN UP ORBITALS
  NO   OCC          E(Eh)            E(eV)
   0   1.0000     -10.260044      -279.1900
   1   1.0000     -10.250428      -278.9283
   2   1.0000     -10.240255      -278.6515
   3   1.0000     -10.227157      -278.2951
   4   1.0000     -10.221485      -278.1407
   5   1.0000     -10.208546      -277.7886
   6   1.0000     -10.189302      -277.2650
   7   1.0000     -10.183985      -277.1203
   8   1.0000     -10.180050      -277.0133
   9   1.0000      -0.909650       -24.7528
  10   1.0000      -0.826207       -22.4822
  11   1.0000      -0.819515       -22.3001
  12   1.0000      -0.723849       -19.6969
  13   1.0000      -0.713659       -19.4197
  14   1.0000      -0.710816       -19.3423
  15   1.0000      -0.609869       -16.5954
  16   1.0000      -0.605837       -16.4857
  17   1.0000      -0.529800       -14.4166
  18   1.0000      -0.519245       -14.1294
  19   1.0000      -0.463034       -12.5998
  20   1.0000      -0.459489       -12.5033
  21   1.0000      -0.439253       -11.9527
  22   1.0000      -0.435169       -11.8416
  23   1.0000      -0.433548       -11.7975
  24   1.0000      -0.425297       -11.5729
  25   1.0000      -0.413257       -11.2453
  26   1.0000      -0.411911       -11.2087
  27   1.0000      -0.383025       -10.4226
  28   1.0000      -0.373599       -10.1661
  29   1.0000      -0.369425       -10.0526
  30   1.0000      -0.368457       -10.0262
  31   1.0000      -0.292758        -7.9663
  32   1.0000      -0.283753        -7.7213
  33   0.0000      -0.076771        -2.0891
  34   0.0000      -0.040455        -1.1008
  35   0.0000      -0.008227        -0.2239
  36   0.0000       0.005860         0.1595
  37   0.0000       0.006500         0.1769

                 SPIN DOWN ORBITALS
  NO   OCC          E(Eh)            E(eV)
   0   1.0000     -10.255384      -279.0632
   1   1.0000     -10.243196      -278.7315
   2   1.0000     -10.239262      -278.6245
   3   1.0000     -10.228208      -278.3237
   4   1.0000     -10.219370      -278.0832
   5   1.0000     -10.208765      -277.7946
   6   1.0000     -10.189231      -277.2631
   7   1.0000     -10.183873      -277.1173
   8   1.0000     -10.179952      -277.0106
   9   1.0000      -0.900607       -24.5068
  10   1.0000      -0.818331       -22.2679
  11   1.0000      -0.814519       -22.1642
  12   1.0000      -0.722052       -19.6480
  13   1.0000      -0.708318       -19.2743
  14   1.0000      -0.703233       -19.1359
  15   1.0000      -0.603669       -16.4267
  16   1.0000      -0.601951       -16.3799
  17   1.0000      -0.526632       -14.3304
  18   1.0000      -0.516079       -14.0432
  19   1.0000      -0.460255       -12.5242
  20   1.0000      -0.445171       -12.1137
  21   1.0000      -0.438790       -11.9401
  22   1.0000      -0.430940       -11.7265
  23   1.0000      -0.424129       -11.5411
  24   1.0000      -0.423422       -11.5219
  25   1.0000      -0.412179       -11.2160
  26   1.0000      -0.410911       -11.1815
  27   1.0000      -0.381578       -10.3833
  28   1.0000      -0.372096       -10.1252
  29   1.0000      -0.366669        -9.9776
  30   1.0000      -0.349384        -9.5072
  31   1.0000      -0.279146        -7.5959
  32   0.0000      -0.206190        -5.6107
  33   0.0000      -0.043955        -1.1961
  34   0.0000      -0.029741        -0.8093
  35   0.0000      -0.007883        -0.2145
  36   0.0000       0.006052         0.1647

MULLIKEN ATOMIC CHARGES AND SPIN POPULATIONS
--------------------------------------------
   0 C :   -0.836471    0.170579
   1 C :    1.043541   -0.104782
   2 C :   -0.753921    0.010014
   3 H :    0.207628   -0.001010
   4 H :    0.228378   -0.000776
   5 H :    0.223328   -0.000811
   6 C :   -1.288564    0.483445
   7 C :    1.129484    0.067623
   8 C :   -0.720120    0.001636
   9 H :    0.235680    0.010137
  10 H :    0.195787   -0.002753
  11 H :    0.236266    0.010317
  12 C :   -0.388662   -0.013824
  13 C :    1.353271    0.347942
  14 C :   -0.639500   -0.015509
  15 H :    0.243543    0.031141
  16 H :    0.207622   -0.004936
  17 H :    0.241359    0.030554
  18 H :   -0.093669   -0.003545
  19 H :    0.140862   -0.009791
  20 H :    0.034158   -0.005653
Sum of atomic charges         :    1.0000000

LOEWDIN ATOMIC CHARGES AND SPIN POPULATIONS
-------------------------------------------
   0 C :    0.305098    0.111332
   1 C :   -0.064940    0.066053
   2 C :    0.599926   -0.000335
   3 H :   -0.153398    0.000386
   4 H :   -0.139824    0.000397
   5 H :   -0.140375    0.000382
   6 C :    0.344963    0.261790
   7 C :   -0.055400    0.109399
   8 C :    0.608641    0.024264
   9 H :   -0.133333    0.006634
  10 H :   -0.148847    0.001415
  11 H :   -0.133094    0.006712
  12 C :    0.296298    0.053384
  13 C :   -0.040638    0.185128
  14 C :    0.624793    0.067161
  15 H :   -0.122680    0.017410
  16 H :   -0.144357    0.002608
  17 H :   -0.123163    0.017120
  18 H :   -0.139985    0.000356
  19 H :   -0.110727    0.052207
  20 H :   -0.128956    0.016198

  Mayer bond orders larger than 0.100000
B(  0-C ,  1-C ) :   0.8777 B(  0-C ,  6-C ) :   0.1458 B(  0-C ,  7-C ) :  -0.1153
B(  0-C , 13-C ) :   0.1919 B(  0-C , 14-C ) :   0.1563 B(  0-C , 18-H ) :   0.1067
B(  0-C , 20-H ) :   1.3731 B(  1-C ,  2-C ) :   0.3039 B(  1-C ,  6-C ) :   0.5482
B(  1-C ,  7-C ) :   0.3058 B(  1-C , 13-C ) :   0.4225 B(  2-C ,  3-H ) :   0.9922
B(  2-C ,  4-H ) :   1.0078 B(  2-C ,  5-H ) :   1.0124 B(  2-C ,  6-C ) :   0.2092
B(  6-C ,  7-C ) :   0.4163 B(  6-C ,  8-C ) :   0.1809 B(  6-C , 13-C ) :  -0.4255
B(  6-C , 19-H ) :   1.2170 B(  6-C , 20-H ) :   0.1005 B(  7-C ,  8-C ) :   0.2639
B(  7-C , 12-C ) :   0.7171 B(  7-C , 13-C ) :   0.4576 B(  7-C , 18-H ) :  -0.1877
B(  8-C ,  9-H ) :   0.9945 B(  8-C , 10-H ) :   1.0120 B(  8-C , 11-H ) :   0.9938
B(  8-C , 12-C ) :  -0.1160 B( 12-C , 13-C ) :   0.3220 B( 12-C , 18-H ) :   1.5764
B( 13-C , 14-C ) :   0.3167 B( 13-C , 18-H ) :  -0.2040 B( 13-C , 20-H ) :  -0.1229
B( 14-C , 15-H ) :   0.9690 B( 14-C , 16-H ) :   1.0045 B( 14-C , 17-H ) :   0.9710

Dispersion correction           -0.034887229
FINAL SINGLE POINT ENERGY      -349.909263040580

DIPOLE MOMENT
-------------

Method             : SCF
Type of density    : Electron Density
Multiplicity       :   2
Irrep              :   0
Energy             :  -349.8743758115918467 Eh
Relativity type    :
Basis              : AO
                                X                 Y                 Z
Electronic contribution:     -0.264634499       0.332346446      -0.019964105
Nuclear contribution   :      0.172059902      -0.262839703       0.016137258
                        -----------------------------------------
Total Dipole Moment    :     -0.092574597       0.069506742      -0.003826846
                        -----------------------------------------
Magnitude (a.u.)       :      0.115826974
Magnitude (Debye)      :      0.294408771

Rotational constants in cm-1:             0.058615             0.057378             0.029475
Rotational constants in MHz :          1757.241718          1720.152474           883.633658

                             ****ORCA TERMINATED NORMALLY****
TOTAL RUN TIME: 0 days 0 hours 8 minutes 30 seconds 888 msec
