                         Program Version 6.0.0  -   RELEASE  -
|  1> !r2SCAN aug-cc-pVTZ d3 TightSCF SlowConv RIJCOSX defgrid2
|  2>
|  3> %pal
|  4> nprocs 4
|  5> end
|  6>
|  7> %scf
|  8> MaxIter 1500
|  9> end
| 10>
| 11> %maxcore 3000
| 12>
| 13> !CPCM
| 14> %cpcm smd true
| 15> SMDsolvent "MeCN"
| 16> surfacetype gepol_ses
| 17> rsolv 2.19
| 18> end
| 19>
| 20> * xyz 0 1
| 21> C          -0.33578897576289      0.78706332413970     -0.00007064342653
| 22> C          -1.63104450940735      0.25443214150099      0.00002424994707
| 23> C          -1.80666505085776     -1.13184792287007      0.00010488474499
| 24> C          -0.67709514280741     -1.95709297790421      0.00008171672668
| 25> C           0.60485199074243     -1.42986794226310     -0.00000896897667
| 26> C           0.79403740595386     -0.03404919740528     -0.00007754792200
| 27> C           2.11776775675579      0.59942775277408     -0.00015788147995
| 28> C           3.31301096591764     -0.01037680773538      0.00016998990263
| 29> C           4.62672268480693      0.69670422006693      0.00006613977785
| 30> H           5.22986800286636      0.42062681248378     -0.88556810108390
| 31> H           5.22969209158747      0.42121685919020      0.88600364391119
| 32> H           4.49947065542959      1.79239087728672     -0.00031400154329
| 33> H           3.35830731979376     -1.10765129675188      0.00055685548665
| 34> H           2.10183131012046      1.69773297660842     -0.00050241232510
| 35> H           1.46480294351024     -2.10372145346859     -0.00005885954138
| 36> H          -0.81507815522221     -3.04272899333565      0.00012435061663
| 37> H          -2.80202830314914     -1.57931173714880      0.00017356816380
| 38> O          -2.63880088575063      1.15236499149081      0.00002597094029
| 39> C          -3.95583677666632      0.68525859520605      0.00017372040280
| 40> H          -4.60351833384684      1.57486457447649      0.00019490121742
| 41> H          -4.17725863855936      0.08018155004781      0.90083429325456
| 42> H          -4.17743481291300      0.08009944047560     -0.90038823724126
| 43> H          -0.23264934254160      1.87564721313537     -0.00013303155248
| 44> *
| 45>
| 46>                          ****END OF INPUT****

CARTESIAN COORDINATES (ANGSTROEM)
---------------------------------
  C     -0.335789    0.787063   -0.000071
  C     -1.631045    0.254432    0.000024
  C     -1.806665   -1.131848    0.000105
  C     -0.677095   -1.957093    0.000082
  C      0.604852   -1.429868   -0.000009
  C      0.794037   -0.034049   -0.000078
  C      2.117768    0.599428   -0.000158
  C      3.313011   -0.010377    0.000170
  C      4.626723    0.696704    0.000066
  H      5.229868    0.420627   -0.885568
  H      5.229692    0.421217    0.886004
  H      4.499471    1.792391   -0.000314
  H      3.358307   -1.107651    0.000557
  H      2.101831    1.697733   -0.000502
  H      1.464803   -2.103721   -0.000059
  H     -0.815078   -3.042729    0.000124
  H     -2.802028   -1.579312    0.000174
  O     -2.638801    1.152365    0.000026
  C     -3.955837    0.685259    0.000174
  H     -4.603518    1.574865    0.000195
  H     -4.177259    0.080182    0.900834
  H     -4.177435    0.080099   -0.900388
  H     -0.232649    1.875647   -0.000133

 Total Charge           Charge          ....    0
 Multiplicity           Mult            ....    1
 Number of Electrons    NEL             ....   80
 Basis Dimension        Dim             ....  782

ORBITAL ENERGIES
----------------

  NO   OCC          E(Eh)            E(eV)
   0   2.0000     -18.991719      -516.7909
   1   2.0000     -10.099932      -274.8331
   2   2.0000     -10.077943      -274.2348
   3   2.0000     -10.053530      -273.5705
   4   2.0000     -10.041700      -273.2486
   5   2.0000     -10.041052      -273.2309
   6   2.0000     -10.035532      -273.0807
   7   2.0000     -10.035345      -273.0756
   8   2.0000     -10.034321      -273.0477
   9   2.0000     -10.031799      -272.9791
  10   2.0000     -10.028149      -272.8798
  11   2.0000      -1.041822       -28.3494
  12   2.0000      -0.825281       -22.4570
  13   2.0000      -0.765770       -20.8377
  14   2.0000      -0.724547       -19.7159
  15   2.0000      -0.716815       -19.5055
  16   2.0000      -0.657672       -17.8962
  17   2.0000      -0.645299       -17.5595
  18   2.0000      -0.572455       -15.5773
  19   2.0000      -0.565817       -15.3967
  20   2.0000      -0.517255       -14.0752
  21   2.0000      -0.489015       -13.3068
  22   2.0000      -0.454316       -12.3626
  23   2.0000      -0.448456       -12.2031
  24   2.0000      -0.434064       -11.8115
  25   2.0000      -0.426146       -11.5960
  26   2.0000      -0.398658       -10.8480
  27   2.0000      -0.385656       -10.4942
  28   2.0000      -0.377511       -10.2726
  29   2.0000      -0.365292        -9.9401
  30   2.0000      -0.356036        -9.6882
  31   2.0000      -0.351624        -9.5682
  32   2.0000      -0.334585        -9.1045
  33   2.0000      -0.320143        -8.7115
  34   2.0000      -0.309930        -8.4336
  35   2.0000      -0.303789        -8.2665
  36   2.0000      -0.291209        -7.9242
  37   2.0000      -0.269139        -7.3237
  38   2.0000      -0.212918        -5.7938
  39   2.0000      -0.199847        -5.4381
  40   0.0000      -0.059618        -1.6223
  41   0.0000      -0.031343        -0.8529
  42   0.0000       0.006975         0.1898
  43   0.0000       0.018201         0.4953
  44   0.0000       0.020769         0.5651

MULLIKEN ATOMIC CHARGES
-----------------------
   0 C :   -1.212529
   1 C :    0.902498
   2 C :   -0.001765
   3 C :   -0.926241
   4 C :   -0.550565
   5 C :    2.066669
   6 C :   -0.111816
   7 C :   -0.165802
   8 C :   -0.806259
   9 H :    0.155255
  10 H :    0.155651
  11 H :    0.245071
  12 H :    0.073723
  13 H :   -0.131326
  14 H :    0.096480
  15 H :    0.447403
  16 H :    0.227665
  17 O :   -0.604727
  18 C :   -0.619878
  19 H :    0.215794
  20 H :    0.244901
  21 H :    0.244081
  22 H :    0.055716
Sum of atomic charges:   -0.0000000

LOEWDIN ATOMIC CHARGES
----------------------
   0 C :    0.205945
   1 C :   -0.401653
   2 C :    0.198480
   3 C :    0.183882
   4 C :    0.193864
   5 C :   -0.163515
   6 C :    0.199234
   7 C :    0.199181
   8 C :    0.553993
   9 H :   -0.163849
  10 H :   -0.163871
  11 H :   -0.173923
  12 H :   -0.184210
  13 H :   -0.184599
  14 H :   -0.188588
  15 H :   -0.169097
  16 H :   -0.192581
  17 O :    0.593316
  18 C :    0.321146
  19 H :   -0.169874
  20 H :   -0.161246
  21 H :   -0.161223
  22 H :   -0.170814

  Mayer bond orders larger than 0.100000
B(  0-C ,  1-C ) :   0.5657 B(  0-C ,  4-C ) :  -0.2860 B(  0-C ,  5-C ) :  -0.1890
B(  0-C ,  6-C ) :  -0.1358 B(  0-C ,  7-C ) :   0.2193 B(  0-C , 17-O ) :   0.3376
B(  0-C , 22-H ) :   1.2993 B(  1-C ,  2-C ) :   0.9721 B(  1-C ,  4-C ) :  -0.2248
B(  1-C , 17-O ) :   0.1287 B(  1-C , 22-H ) :  -0.1322 B(  2-C ,  3-C ) :   0.8113
B(  2-C , 16-H ) :   0.9612 B(  2-C , 17-O ) :  -0.2405 B(  2-C , 18-C ) :  -0.1719
B(  3-C ,  4-C ) :   0.8641 B(  3-C ,  5-C ) :  -0.1387 B(  3-C ,  6-C ) :   0.1111
B(  3-C ,  7-C ) :  -0.1420 B(  3-C , 14-H ) :  -0.1521 B(  3-C , 15-H ) :   0.5284
B(  4-C ,  5-C ) :   0.3062 B(  4-C , 14-H ) :   1.1943 B(  5-C ,  7-C ) :  -0.1902
B(  5-C ,  8-C ) :   0.1122 B(  5-C , 12-H ) :  -0.2009 B(  5-C , 13-H ) :  -0.1260
B(  5-C , 14-H ) :  -0.1460 B(  5-C , 17-O ) :   0.1408 B(  5-C , 22-H ) :  -0.1583
B(  6-C ,  7-C ) :   0.9619 B(  6-C , 13-H ) :   1.4135 B(  6-C , 22-H ) :  -0.1021
B(  7-C ,  8-C ) :   0.5054 B(  7-C , 12-H ) :   1.4531 B(  7-C , 13-H ) :  -0.1878
B(  8-C ,  9-H ) :   1.0726 B(  8-C , 10-H ) :   1.0727 B(  8-C , 11-H ) :   0.9365
B(  8-C , 12-H ) :  -0.1871 B( 16-H , 18-C ) :  -0.1466 B( 17-O , 18-C ) :   1.0232
B( 18-C , 19-H ) :   0.9734 B( 18-C , 20-H ) :   0.9341 B( 18-C , 21-H ) :   0.9347

Dispersion correction           -0.006976371
FINAL SINGLE POINT ENERGY      -463.404849011609

DIPOLE MOMENT
-------------

Method             : SCF
Type of density    : Electron Density
Multiplicity       :   1
Irrep              :   0
Energy             :  -463.3978726402271491 Eh
Relativity type    :
Basis              : AO
                                X                 Y                 Z
Electronic contribution:     -5.063399356      -0.403758053      -0.000528902
Nuclear contribution   :      4.758796555       0.116147158       0.000484674
                        -----------------------------------------
Total Dipole Moment    :     -0.304602801      -0.287610895      -0.000044229
                        -----------------------------------------
Magnitude (a.u.)       :      0.418930657
Magnitude (Debye)      :      1.064837105

Rotational constants in cm-1:             0.102459             0.016958             0.014631
Rotational constants in MHz :          3071.640827           508.382931           438.625504

                             ****ORCA TERMINATED NORMALLY****
TOTAL RUN TIME: 0 days 0 hours 4 minutes 28 seconds 90 msec
