                         Program Version 6.0.0  -   RELEASE  -
|  1> !PBE0 freq def2-SV(p) d3 TightSCF SlowConv RIJCOSX defgrid2
|  2>
|  3> %pal
|  4> nprocs 12
|  5> end
|  6>
|  7> %scf
|  8> MaxIter 1500
|  9> end
| 10>
| 11> %maxcore 5000
| 12>
| 13> !CPCM
| 14> %cpcm smd true
| 15> SMDsolvent "MeCN"
| 16> surfacetype gepol_ses
| 17> rsolv 2.19
| 18> end
| 19>
| 20> * xyz 1 2
| 21> C           2.42610575113389     -0.93470276212540      0.56435219755542
| 22> C           1.26130223225636     -0.38608639730549     -0.02624885202287
| 23> C           1.35171469018581      0.86963081736239     -0.67785179064930
| 24> C           2.55605014686997      1.55335610447382     -0.72114619099051
| 25> C           3.68950263518694      1.00767097309361     -0.10933778328752
| 26> C           3.61982613561364     -0.23519587708630      0.53462730731208
| 27> H           4.50828653462491     -0.65245426538700      1.01551818523341
| 28> H           4.63938454060128      1.54884622407727     -0.14300041225849
| 29> H           2.62148915258034      2.51032596283069     -1.24507144001958
| 30> H           0.47777377923373      1.27564574577029     -1.19293495064337
| 31> C          -0.00001635212680     -1.10397973210424      0.00009777681817
| 32> C          -0.00003230534171     -2.49730543803619      0.00007551097419
| 33> H          -0.93504433605415     -3.06500424032143     -0.01832116602518
| 34> H           0.93496074229229     -3.06504608516788      0.01842865351676
| 35> C          -1.26132600046743     -0.38607294668391      0.02635395870943
| 36> C          -2.42605802680264     -0.93461646869713     -0.56444873741535
| 37> C          -3.61976331145003     -0.23507431809389     -0.53485525779728
| 38> C          -3.68948764789849      1.00777380186385      0.10913585450581
| 39> C          -2.55610863147560      1.55338093207247      0.72116149627437
| 40> C          -1.35180009233734      0.86960329504430      0.67801279951006
| 41> H          -0.47797987873682      1.27552033139472      1.19340898024632
| 42> H          -2.62159616642124      2.51030574082249      1.24516143202018
| 43> H          -4.63935414475906      1.54898242562489      0.14267552572202
| 44> H          -4.50816465299016     -0.65227117419624     -1.01591215919901
| 45> H          -2.37570848378582     -1.89295211364702     -1.08636459734176
| 46> H           2.37581109006813     -1.89307453557867      1.08620775925198
| 47> *
| 48>
| 49>                          ****END OF INPUT****

CARTESIAN COORDINATES (ANGSTROEM)
---------------------------------
  C      2.426106   -0.934703    0.564352
  C      1.261302   -0.386086   -0.026249
  C      1.351715    0.869631   -0.677852
  C      2.556050    1.553356   -0.721146
  C      3.689503    1.007671   -0.109338
  C      3.619826   -0.235196    0.534627
  H      4.508287   -0.652454    1.015518
  H      4.639385    1.548846   -0.143000
  H      2.621489    2.510326   -1.245071
  H      0.477774    1.275646   -1.192935
  C     -0.000016   -1.103980    0.000098
  C     -0.000032   -2.497305    0.000076
  H     -0.935044   -3.065004   -0.018321
  H      0.934961   -3.065046    0.018429
  C     -1.261326   -0.386073    0.026354
  C     -2.426058   -0.934616   -0.564449
  C     -3.619763   -0.235074   -0.534855
  C     -3.689488    1.007774    0.109136
  C     -2.556109    1.553381    0.721161
  C     -1.351800    0.869603    0.678013
  H     -0.477980    1.275520    1.193409
  H     -2.621596    2.510306    1.245161
  H     -4.639354    1.548982    0.142676
  H     -4.508165   -0.652271   -1.015912
  H     -2.375708   -1.892952   -1.086365
  H      2.375811   -1.893075    1.086208

 Total Charge           Charge          ....    1
 Multiplicity           Mult            ....    2
 Number of Electrons    NEL             ....   95
 Basis Dimension        Dim             ....  220

ORBITAL ENERGIES
----------------
                 SPIN UP ORBITALS
  NO   OCC          E(Eh)            E(eV)
   0   1.0000     -10.318309      -280.7754
   1   1.0000     -10.304013      -280.3865
   2   1.0000     -10.290605      -280.0216
   3   1.0000     -10.290573      -280.0207
   4   1.0000     -10.271747      -279.5084
   5   1.0000     -10.271734      -279.5081
   6   1.0000     -10.270712      -279.4803
   7   1.0000     -10.270710      -279.4802
   8   1.0000     -10.270197      -279.4663
   9   1.0000     -10.270193      -279.4662
  10   1.0000     -10.259097      -279.1642
  11   1.0000     -10.259095      -279.1642
  12   1.0000     -10.258578      -279.1501
  13   1.0000     -10.258568      -279.1498
  14   1.0000      -0.932276       -25.3685
  15   1.0000      -0.905203       -24.6318
  16   1.0000      -0.866772       -23.5861
  17   1.0000      -0.797842       -21.7104
  18   1.0000      -0.796810       -21.6823
  19   1.0000      -0.787742       -21.4356
  20   1.0000      -0.773278       -21.0420
  21   1.0000      -0.689989       -18.7755
  22   1.0000      -0.656194       -17.8559
  23   1.0000      -0.644616       -17.5409
  24   1.0000      -0.638413       -17.3721
  25   1.0000      -0.597565       -16.2606
  26   1.0000      -0.570440       -15.5225
  27   1.0000      -0.547206       -14.8902
  28   1.0000      -0.513135       -13.9631
  29   1.0000      -0.511848       -13.9281
  30   1.0000      -0.492527       -13.4024
  31   1.0000      -0.482710       -13.1352
  32   1.0000      -0.480438       -13.0734
  33   1.0000      -0.463045       -12.6001
  34   1.0000      -0.461750       -12.5649
  35   1.0000      -0.460474       -12.5301
  36   1.0000      -0.432728       -11.7751
  37   1.0000      -0.425476       -11.5778
  38   1.0000      -0.416464       -11.3326
  39   1.0000      -0.396537       -10.7903
  40   1.0000      -0.386643       -10.5211
  41   1.0000      -0.380405       -10.3513
  42   1.0000      -0.376325       -10.2403
  43   1.0000      -0.364513        -9.9189
  44   1.0000      -0.302263        -8.2250
  45   1.0000      -0.299498        -8.1497
  46   1.0000      -0.293946        -7.9987
  47   1.0000      -0.281794        -7.6680
  48   0.0000      -0.099346        -2.7034
  49   0.0000      -0.046225        -1.2578
  50   0.0000      -0.034774        -0.9462
  51   0.0000      -0.021686        -0.5901
  52   0.0000       0.022130         0.6022

                 SPIN DOWN ORBITALS
  NO   OCC          E(Eh)            E(eV)
   0   1.0000     -10.318725      -280.7868
   1   1.0000     -10.294605      -280.1304
   2   1.0000     -10.289529      -279.9923
   3   1.0000     -10.289496      -279.9914
   4   1.0000     -10.270670      -279.4791
   5   1.0000     -10.270657      -279.4788
   6   1.0000     -10.269259      -279.4407
   7   1.0000     -10.269255      -279.4406
   8   1.0000     -10.268662      -279.4245
   9   1.0000     -10.268660      -279.4245
  10   1.0000     -10.259618      -279.1784
  11   1.0000     -10.259616      -279.1783
  12   1.0000     -10.259198      -279.1670
  13   1.0000     -10.259188      -279.1667
  14   1.0000      -0.928025       -25.2528
  15   1.0000      -0.902268       -24.5519
  16   1.0000      -0.860431       -23.4135
  17   1.0000      -0.795201       -21.6385
  18   1.0000      -0.793788       -21.6001
  19   1.0000      -0.785439       -21.3729
  20   1.0000      -0.760250       -20.6874
  21   1.0000      -0.683868       -18.6090
  22   1.0000      -0.654234       -17.8026
  23   1.0000      -0.641126       -17.4459
  24   1.0000      -0.636669       -17.3246
  25   1.0000      -0.594645       -16.1811
  26   1.0000      -0.569240       -15.4898
  27   1.0000      -0.544206       -14.8086
  28   1.0000      -0.511068       -13.9069
  29   1.0000      -0.509766       -13.8714
  30   1.0000      -0.490216       -13.3395
  31   1.0000      -0.479856       -13.0576
  32   1.0000      -0.478382       -13.0174
  33   1.0000      -0.460670       -12.5355
  34   1.0000      -0.460499       -12.5308
  35   1.0000      -0.459593       -12.5062
  36   1.0000      -0.429518       -11.6878
  37   1.0000      -0.416555       -11.3350
  38   1.0000      -0.408440       -11.1142
  39   1.0000      -0.395868       -10.7721
  40   1.0000      -0.386132       -10.5072
  41   1.0000      -0.376806       -10.2534
  42   1.0000      -0.375051       -10.2056
  43   1.0000      -0.343002        -9.3336
  44   1.0000      -0.298025        -8.1097
  45   1.0000      -0.291683        -7.9371
  46   1.0000      -0.283492        -7.7142
  47   0.0000      -0.195860        -5.3296
  48   0.0000      -0.064822        -1.7639
  49   0.0000      -0.037819        -1.0291
  50   0.0000      -0.030287        -0.8242
  51   0.0000      -0.016104        -0.4382

MULLIKEN ATOMIC CHARGES AND SPIN POPULATIONS
--------------------------------------------
   0 C :   -0.110770    0.061293
   1 C :    0.030112    0.068038
   2 C :   -0.111615    0.070647
   3 C :   -0.101359   -0.051898
   4 C :   -0.057493    0.146993
   5 C :   -0.102783   -0.045213
   6 H :    0.149004    0.001514
   7 H :    0.156465   -0.007040
   8 H :    0.149285    0.001969
   9 H :    0.164690   -0.003357
  10 C :    0.042338   -0.031657
  11 C :   -0.118976    0.612689
  12 H :    0.218741   -0.030337
  13 H :    0.218744   -0.030336
  14 C :    0.030289    0.068024
  15 C :   -0.110789    0.061288
  16 C :   -0.102783   -0.045207
  17 C :   -0.057508    0.146977
  18 C :   -0.101394   -0.051897
  19 C :   -0.111644    0.070650
  20 H :    0.164592   -0.003357
  21 H :    0.149287    0.001969
  22 H :    0.156463   -0.007039
  23 H :    0.149004    0.001513
  24 H :    0.154050   -0.003113
  25 H :    0.154054   -0.003113
Sum of atomic charges         :    1.0000000

LOEWDIN ATOMIC CHARGES AND SPIN POPULATIONS
-------------------------------------------
   0 C :   -0.077975    0.053872
   1 C :   -0.024819    0.060147
   2 C :   -0.077247    0.061912
   3 C :   -0.117043   -0.027567
   4 C :   -0.060045    0.115290
   5 C :   -0.114228   -0.022986
   6 H :    0.157556    0.000700
   7 H :    0.159148   -0.003393
   8 H :    0.157802    0.001016
   9 H :    0.159652   -0.001419
  10 C :    0.044375    0.007964
  11 C :   -0.036374    0.549107
  12 H :    0.172842   -0.014565
  13 H :    0.172843   -0.014565
  14 C :   -0.024790    0.060137
  15 C :   -0.077981    0.053867
  16 C :   -0.114227   -0.022983
  17 C :   -0.060056    0.115278
  18 C :   -0.117043   -0.027567
  19 C :   -0.077249    0.061912
  20 H :    0.159610   -0.001419
  21 H :    0.157803    0.001016
  22 H :    0.159147   -0.003393
  23 H :    0.157556    0.000700
  24 H :    0.160371   -0.001531
  25 H :    0.160373   -0.001532

  Mayer bond orders larger than 0.100000
B(  0-C ,  1-C ) :   1.2683 B(  0-C ,  5-C ) :   1.4459 B(  0-C , 25-H ) :   0.9479
B(  1-C ,  2-C ) :   1.2742 B(  1-C , 10-C ) :   1.1365 B(  2-C ,  3-C ) :   1.4277
B(  2-C ,  9-H ) :   0.9435 B(  3-C ,  4-C ) :   1.3442 B(  3-C ,  8-H ) :   0.9590
B(  4-C ,  5-C ) :   1.3275 B(  4-C ,  7-H ) :   0.9568 B(  5-C ,  6-H ) :   0.9581
B( 10-C , 11-C ) :   1.5583 B( 10-C , 14-C ) :   1.1365 B( 11-C , 12-H ) :   0.8898
B( 11-C , 13-H ) :   0.8898 B( 14-C , 15-C ) :   1.2683 B( 14-C , 19-C ) :   1.2741
B( 15-C , 16-C ) :   1.4459 B( 15-C , 24-H ) :   0.9479 B( 16-C , 17-C ) :   1.3275
B( 16-C , 23-H ) :   0.9581 B( 17-C , 18-C ) :   1.3442 B( 17-C , 22-H ) :   0.9568
B( 18-C , 19-C ) :   1.4278 B( 18-C , 21-H ) :   0.9590 B( 19-C , 20-H ) :   0.9435

Dispersion correction           -0.029103097
FINAL SINGLE POINT ENERGY      -539.468867569445

DIPOLE MOMENT
-------------

Method             : SCF
Type of density    : Electron Density
Multiplicity       :   2
Irrep              :   0
Energy             :  -539.4397644720480685 Eh
Relativity type    :
Basis              : AO
                                X                 Y                 Z
Electronic contribution:      0.000071257      -0.360622710       0.000090357
Nuclear contribution   :     -0.000056027      -0.593713630      -0.000124914
                        -----------------------------------------
Total Dipole Moment    :      0.000015230      -0.954336340      -0.000034557
                        -----------------------------------------
Magnitude (a.u.)       :      0.954336341
Magnitude (Debye)      :      2.425730202

VIBRATIONAL FREQUENCIES
-----------------------

Scaling factor for frequencies =  1.000000000  (already applied!)

     0:       0.00 cm**-1
     1:       0.00 cm**-1
     2:       0.00 cm**-1
     3:       0.00 cm**-1
     4:       0.00 cm**-1
     5:       0.00 cm**-1
     6:      45.91 cm**-1
     7:      70.53 cm**-1
     8:      82.83 cm**-1
     9:     118.56 cm**-1
    10:     214.93 cm**-1
    11:     252.79 cm**-1
    12:     304.52 cm**-1
    13:     342.46 cm**-1
    14:     400.38 cm**-1
    15:     410.43 cm**-1
    16:     420.50 cm**-1
    17:     432.78 cm**-1
    18:     485.43 cm**-1
    19:     564.01 cm**-1
    20:     591.08 cm**-1
    21:     612.75 cm**-1
    22:     614.73 cm**-1
    23:     624.90 cm**-1
    24:     690.51 cm**-1
    25:     692.66 cm**-1
    26:     740.14 cm**-1
    27:     798.42 cm**-1
    28:     807.62 cm**-1
    29:     847.15 cm**-1
    30:     848.38 cm**-1
    31:     853.51 cm**-1
    32:     936.97 cm**-1
    33:     970.59 cm**-1
    34:     971.88 cm**-1
    35:    1005.49 cm**-1
    36:    1010.18 cm**-1
    37:    1012.07 cm**-1
    38:    1012.68 cm**-1
    39:    1039.85 cm**-1
    40:    1040.41 cm**-1
    41:    1041.91 cm**-1
    42:    1052.24 cm**-1
    43:    1066.30 cm**-1
    44:    1115.85 cm**-1
    45:    1118.89 cm**-1
    46:    1153.17 cm**-1
    47:    1153.99 cm**-1
    48:    1179.67 cm**-1
    49:    1180.04 cm**-1
    50:    1196.27 cm**-1
    51:    1321.39 cm**-1
    52:    1327.39 cm**-1
    53:    1392.09 cm**-1
    54:    1402.89 cm**-1
    55:    1424.03 cm**-1
    56:    1426.48 cm**-1
    57:    1476.04 cm**-1
    58:    1483.56 cm**-1
    59:    1512.24 cm**-1
    60:    1528.63 cm**-1
    61:    1549.51 cm**-1
    62:    1613.90 cm**-1
    63:    1615.93 cm**-1
    64:    1632.47 cm**-1
    65:    1689.31 cm**-1
    66:    3192.78 cm**-1
    67:    3216.46 cm**-1
    68:    3216.71 cm**-1
    69:    3222.17 cm**-1
    70:    3223.17 cm**-1
    71:    3227.18 cm**-1
    72:    3228.07 cm**-1
    73:    3234.26 cm**-1
    74:    3234.79 cm**-1
    75:    3238.61 cm**-1
    76:    3239.53 cm**-1
    77:    3297.31 cm**-1

IR SPECTRUM
-----------

 Mode   freq       eps      Int      T**2         TX        TY        TZ
       cm**-1   L/(mol*cm) km/mol    a.u.
----------------------------------------------------------------------------
  6:     45.91   0.002720   13.74  0.018488  ( 0.135732 -0.000053  0.008038)
  7:     70.53   0.000012    0.06  0.000051  (-0.000056  0.007135  0.000022)
  8:     82.83   0.000016    0.08  0.000059  (-0.000122 -0.007658 -0.000077)
  9:    118.56   0.003760   19.00  0.009897  ( 0.081224 -0.000034  0.057439)
 10:    214.93   0.000033    0.17  0.000048  (-0.000022  0.006928 -0.000041)
 11:    252.79   0.000699    3.53  0.000862  ( 0.024299  0.000027  0.016490)
 12:    304.52   0.000035    0.18  0.000036  ( 0.000038  0.005977  0.000005)
 13:    342.46   0.027222  137.57  0.024806  (-0.157408  0.000018  0.005346)
 14:    400.38   0.014924   75.42  0.011632  ( 0.107817  0.000024 -0.002680)
 15:    410.43   0.000059    0.30  0.000045  ( 0.000236  0.006681  0.000047)
 16:    420.50   0.000419    2.12  0.000311  (-0.000011  0.017642 -0.000008)
 17:    432.78   0.010070   50.89  0.007261  ( 0.082880  0.000027  0.019797)
 18:    485.43   0.000342    1.73  0.000220  ( 0.000114 -0.014832  0.000013)
 19:    564.01   0.002869   14.50  0.001587  (-0.000011 -0.039842 -0.000007)
 20:    591.08   0.026759  135.23  0.014128  ( 0.117771 -0.000005 -0.016051)
 21:    612.75   0.000175    0.89  0.000089  ( 0.001186  0.000017 -0.009372)
 22:    614.73   0.000030    0.15  0.000015  ( 0.000024  0.003890  0.000052)
 23:    624.90   0.011634   58.79  0.005810  (-0.075918  0.000001  0.006808)
 24:    690.51   0.005916   29.90  0.002674  (-0.000148  0.051705  0.000458)
 25:    692.66   0.023771  120.13  0.010710  ( 0.017235  0.000258 -0.102042)
 26:    740.14   0.000012    0.06  0.000005  ( 0.000011 -0.002205 -0.000006)
 27:    798.42   0.003158   15.96  0.001234  (-0.000180 -0.035130  0.000103)
 28:    807.62   0.028171  142.36  0.010885  ( 0.085407 -0.000067 -0.059923)
 29:    847.15   0.009096   45.97  0.003351  (-0.057872  0.000176  0.001247)
 30:    848.38   0.000490    2.48  0.000180  ( 0.000652  0.013412  0.000006)
 31:    853.51   0.014570   73.63  0.005327  ( 0.072962  0.000004 -0.001974)
 32:    936.97   0.019059   96.32  0.006348  ( 0.064345  0.000012 -0.046984)
 33:    970.59   0.000275    1.39  0.000089  ( 0.000099 -0.009410  0.000067)
 34:    971.88   0.000445    2.25  0.000143  ( 0.010220 -0.000056 -0.006208)
 35:   1005.49   0.040150  202.90  0.012461  ( 0.111620  0.000023 -0.001376)
 36:   1010.18   0.000424    2.14  0.000131  (-0.000025  0.011438  0.000003)
 37:   1012.07   0.000033    0.17  0.000010  ( 0.001402 -0.000134 -0.002864)
 38:   1012.68   0.000038    0.19  0.000012  ( 0.000140  0.003413 -0.000075)
 39:   1039.85   0.000162    0.82  0.000049  (-0.000125  0.006978 -0.000042)
 40:   1040.41   0.000137    0.69  0.000041  ( 0.004693  0.000018  0.004382)
 41:   1041.91   0.039446  199.34  0.011814  ( 0.108676  0.000001 -0.001963)
 42:   1052.24   0.000001    0.01  0.000000  (-0.000009 -0.000654 -0.000015)
 43:   1066.30   0.034484  174.27  0.010092  (-0.100316  0.000003  0.005358)
 44:   1115.85   0.001944    9.82  0.000544  ( 0.000080 -0.023314  0.000021)
 45:   1118.89   0.012917   65.28  0.003603  ( 0.055951  0.000030  0.021729)
 46:   1153.17   0.000795    4.02  0.000215  (-0.000203  0.014665 -0.000144)
 47:   1153.99   0.000329    1.66  0.000089  (-0.006965 -0.000335 -0.006349)
 48:   1179.67   0.077771  393.02  0.020573  ( 0.143365  0.000140 -0.004394)
 49:   1180.04   0.008555   43.24  0.002263  (-0.000448  0.047564  0.000027)
 50:   1196.27   0.002006   10.14  0.000523  ( 0.000082  0.022877 -0.000015)
 51:   1321.39   0.010930   55.23  0.002581  (-0.050214 -0.000007  0.007729)
 52:   1327.39   0.000667    3.37  0.000157  (-0.000006  0.012520  0.000014)
 53:   1392.09   0.000686    3.47  0.000154  (-0.000047 -0.012399  0.000000)
 54:   1402.89   0.108721  549.43  0.024184  (-0.155487  0.000009 -0.002869)
 55:   1424.03   0.010316   52.13  0.002261  ( 0.000059 -0.047547 -0.000014)
 56:   1426.48   0.060725  306.88  0.013285  (-0.113204 -0.000031  0.021666)
 57:   1476.04   0.005178   26.17  0.001095  ( 0.000027 -0.033086  0.000002)
 58:   1483.56   0.017111   86.47  0.003599  (-0.051584  0.000013 -0.030632)
 59:   1512.24   0.005568   28.14  0.001149  ( 0.000030  0.033896  0.000011)
 60:   1528.63   0.219141  1107.45  0.044737  ( 0.211503 -0.000000 -0.001788)
 61:   1549.51   0.000335    1.69  0.000067  (-0.000104 -0.008207  0.000005)
 62:   1613.90   0.000424    2.14  0.000082  ( 0.008978  0.000001 -0.001182)
 63:   1615.93   0.000000    0.00  0.000000  ( 0.000002 -0.000084  0.000009)
 64:   1632.47   0.535897  2708.20  0.102442  (-0.319945 -0.000001  0.008786)
 65:   1689.31   0.014201   71.76  0.002623  ( 0.000015  0.051218 -0.000005)
 66:   3192.78   0.000700    3.54  0.000068  (-0.000012  0.008269 -0.000000)
 67:   3216.46   0.000735    3.72  0.000071  ( 0.008429  0.000004 -0.000543)
 68:   3216.71   0.000001    0.00  0.000000  (-0.000185 -0.000139  0.000023)
 69:   3222.17   0.000424    2.14  0.000041  (-0.005843 -0.000107 -0.002636)
 70:   3223.17   0.000409    2.07  0.000040  ( 0.000055 -0.006296  0.000021)
 71:   3227.18   0.000136    0.69  0.000013  ( 0.003342  0.000028 -0.001407)
 72:   3228.07   0.000420    2.12  0.000041  (-0.000013  0.006369  0.000018)
 73:   3234.26   0.000170    0.86  0.000016  (-0.000535  0.000110  0.004013)
 74:   3234.79   0.000263    1.33  0.000025  ( 0.000005  0.005033 -0.000096)
 75:   3238.61   0.016966   85.74  0.001635  ( 0.040421 -0.000052 -0.000979)
 76:   3239.53   0.000359    1.82  0.000035  (-0.000348 -0.005874  0.000025)
 77:   3297.31   0.000083    0.42  0.000008  (-0.002720  0.000000  0.000665)

--------------------------
THERMOCHEMISTRY AT 298.15K
--------------------------

Temperature         ...   298.15 K
Pressure            ...     1.00 atm
Total Mass          ...   180.25 AMU
Quasi RRHO          ...     True
Cut-Off Frequency   ...     1.00 cm^-1

Throughout the following assumptions are being made:
  (1) The electronic state is orbitally nondegenerate
      but the spin degeneracy is treated
  (2) There are no thermally accessible electronically excited states
  (3) Hindered rotations indicated by low frequency modes are not
      treated as such but are treated as vibrations and this may
      cause some error
  (4) All equations used are the standard statistical mechanics
      equations for an ideal gas
  (5) All vibrations are strictly harmonic

freq.      45.91  E(vib)   ...       0.53
freq.      70.53  E(vib)   ...       0.50
freq.      82.83  E(vib)   ...       0.48
freq.     118.56  E(vib)   ...       0.44
freq.     214.93  E(vib)   ...       0.34
freq.     252.79  E(vib)   ...       0.30
freq.     304.52  E(vib)   ...       0.26
freq.     342.46  E(vib)   ...       0.23
freq.     400.38  E(vib)   ...       0.19
freq.     410.43  E(vib)   ...       0.19
freq.     420.50  E(vib)   ...       0.18
freq.     432.78  E(vib)   ...       0.17
freq.     485.43  E(vib)   ...       0.15
freq.     564.01  E(vib)   ...       0.11
freq.     591.08  E(vib)   ...       0.10
freq.     612.75  E(vib)   ...       0.10
freq.     614.73  E(vib)   ...       0.10
freq.     624.90  E(vib)   ...       0.09
freq.     690.51  E(vib)   ...       0.07
freq.     692.66  E(vib)   ...       0.07
freq.     740.14  E(vib)   ...       0.06
freq.     798.42  E(vib)   ...       0.05
freq.     807.62  E(vib)   ...       0.05
freq.     847.15  E(vib)   ...       0.04
freq.     848.38  E(vib)   ...       0.04
freq.     853.51  E(vib)   ...       0.04
freq.     936.97  E(vib)   ...       0.03
freq.     970.59  E(vib)   ...       0.03
freq.     971.88  E(vib)   ...       0.03
freq.    1005.49  E(vib)   ...       0.02
freq.    1010.18  E(vib)   ...       0.02
freq.    1012.07  E(vib)   ...       0.02
freq.    1012.68  E(vib)   ...       0.02
freq.    1039.85  E(vib)   ...       0.02
freq.    1040.41  E(vib)   ...       0.02
freq.    1041.91  E(vib)   ...       0.02
freq.    1052.24  E(vib)   ...       0.02
freq.    1066.30  E(vib)   ...       0.02
freq.    1115.85  E(vib)   ...       0.01
freq.    1118.89  E(vib)   ...       0.01
freq.    1153.17  E(vib)   ...       0.01
freq.    1153.99  E(vib)   ...       0.01
freq.    1179.67  E(vib)   ...       0.01
freq.    1180.04  E(vib)   ...       0.01
freq.    1196.27  E(vib)   ...       0.01
freq.    1321.39  E(vib)   ...       0.01
freq.    1327.39  E(vib)   ...       0.01
freq.    1392.09  E(vib)   ...       0.00
freq.    1402.89  E(vib)   ...       0.00
freq.    1424.03  E(vib)   ...       0.00
freq.    1426.48  E(vib)   ...       0.00
freq.    1476.04  E(vib)   ...       0.00
freq.    1483.56  E(vib)   ...       0.00
freq.    1512.24  E(vib)   ...       0.00
freq.    1528.63  E(vib)   ...       0.00
freq.    1549.51  E(vib)   ...       0.00
freq.    1613.90  E(vib)   ...       0.00
freq.    1615.93  E(vib)   ...       0.00
freq.    1632.47  E(vib)   ...       0.00
freq.    1689.31  E(vib)   ...       0.00
freq.    3192.78  E(vib)   ...       0.00
freq.    3216.46  E(vib)   ...       0.00
freq.    3216.71  E(vib)   ...       0.00
freq.    3222.17  E(vib)   ...       0.00
freq.    3223.17  E(vib)   ...       0.00
freq.    3227.18  E(vib)   ...       0.00
freq.    3228.07  E(vib)   ...       0.00
freq.    3234.26  E(vib)   ...       0.00
freq.    3234.79  E(vib)   ...       0.00
freq.    3238.61  E(vib)   ...       0.00
freq.    3239.53  E(vib)   ...       0.00
freq.    3297.31  E(vib)   ...       0.00

------------
INNER ENERGY
------------

The inner energy is: U= E(el) + E(ZPE) + E(vib) + E(rot) + E(trans)
    E(el)   - is the total energy from the electronic structure calculation
              = E(kin-el) + E(nuc-el) + E(el-el) + E(nuc-nuc)
    E(ZPE)  - the the zero temperature vibrational energy from the frequency calculation
    E(vib)  - the the finite temperature correction to E(ZPE) due to population
              of excited vibrational states
    E(rot)  - is the rotational thermal energy
    E(trans)- is the translational thermal energy

Summary of contributions to the inner energy U:
Electronic energy                ...   -539.46886757 Eh
Zero point energy                ...      0.21481577 Eh     134.80 kcal/mol
Thermal vibrational correction   ...      0.00844681 Eh       5.30 kcal/mol
Thermal rotational correction    ...      0.00141627 Eh       0.89 kcal/mol
Thermal translational correction ...      0.00141627 Eh       0.89 kcal/mol
-----------------------------------------------------------------------
Total thermal energy                   -539.24277244 Eh

Summary of corrections to the electronic energy:
(perhaps to be used in another calculation)
Total thermal correction                  0.01127935 Eh       7.08 kcal/mol
Non-thermal (ZPE) correction              0.21481577 Eh     134.80 kcal/mol
-----------------------------------------------------------------------
Total correction                          0.22609513 Eh     141.88 kcal/mol

--------
ENTHALPY
--------

The enthalpy is H = U + kB*T
                kB is Boltzmann's constant
Total thermal energy              ...   -539.24277244 Eh
Thermal Enthalpy correction       ...      0.00094421 Eh       0.59 kcal/mol
-----------------------------------------------------------------------
Total Enthalpy                    ...   -539.24182823 Eh

Note: Only C1 symmetry has been detected, increase convergence thresholds
      if your molecule has a higher symmetry. Symmetry factor of 1.0 is
      used for the rotational entropy correction.

Note: Rotational entropy computed according to Herzberg
Infrared and Raman Spectra, Chapter V,1, Van Nostrand Reinhold, 1945
Point Group:  C1, Symmetry Number:   1
Rotational constants in cm-1:     0.053928     0.014251     0.012059

Vibrational entropy computed according to the QRRHO of S. Grimme
Chem.Eur.J. 2012 18 9955 using a reference frequency of 100.0 cm-1

-------
ENTROPY
-------

The entropy contributions are T*S = T*(S(el)+S(vib)+S(rot)+S(trans))
     S(el)   - electronic entropy
     S(vib)  - vibrational entropy
     S(rot)  - rotational entropy
     S(trans)- translational entropy
The entropies will be listed as multiplied by the temperature to get
units of energy

                             ****ORCA TERMINATED NORMALLY****
TOTAL RUN TIME: 0 days 0 hours 14 minutes 17 seconds 54 msec
