                         Program Version 6.0.0  -   RELEASE  -
|  1> !PBE0 aug-cc-pVTZ d3 TightSCF SlowConv RIJCOSX defgrid2
|  2>
|  3> %pal
|  4> nprocs 4
|  5> end
|  6>
|  7> %scf
|  8> MaxIter 1500
|  9> end
| 10>
| 11> %maxcore 3000
| 12>
| 13> !CPCM
| 14> %cpcm smd true
| 15> SMDsolvent "MeCN"
| 16> surfacetype gepol_ses
| 17> rsolv 2.19
| 18> end
| 19>
| 20> * xyz 0 1
| 21> C           0.72846885788564     -1.15784028584735      0.21465716565288
| 22> C          -0.72838872754133     -1.15789194996047     -0.21471105742009
| 23> H          -1.26566912672840     -2.02298179548787      0.20783755053784
| 24> H          -0.78257562442601     -1.21600334985238     -1.32347491994052
| 25> O          -1.37931475672951     -0.00004060434601      0.24203966695526
| 26> C          -0.72847338747200      1.15785118517467     -0.21468108863207
| 27> C           0.72838447904102      1.15790308826059      0.21468626317123
| 28> H           1.26566574586215      2.02299188926254     -0.20786185075861
| 29> H           0.78257095760651      1.21601527999336      1.32345042944719
| 30> O           1.37931078309740      0.00005102545162     -0.24206320741713
| 31> H          -1.26580107006212      2.02291673363735      0.20786353677761
| 32> H          -0.78266679653089      1.21602011387656     -1.32344454690673
| 33> H           1.26579800052310     -2.02290574756220     -0.20788628184953
| 34> H           0.78266216547443     -1.21600808260041      1.32342094038269
| 35> *
| 36>
| 37>                          ****END OF INPUT****

CARTESIAN COORDINATES (ANGSTROEM)
---------------------------------
  C      0.728469   -1.157840    0.214657
  C     -0.728389   -1.157892   -0.214711
  H     -1.265669   -2.022982    0.207838
  H     -0.782576   -1.216003   -1.323475
  O     -1.379315   -0.000041    0.242040
  C     -0.728473    1.157851   -0.214681
  C      0.728384    1.157903    0.214686
  H      1.265666    2.022992   -0.207862
  H      0.782571    1.216015    1.323450
  O      1.379311    0.000051   -0.242063
  H     -1.265801    2.022917    0.207864
  H     -0.782667    1.216020   -1.323445
  H      1.265798   -2.022906   -0.207886
  H      0.782662   -1.216008    1.323421

 Total Charge           Charge          ....    0
 Multiplicity           Mult            ....    1
 Number of Electrons    NEL             ....   48
 Basis Dimension        Dim             ....  460

ORBITAL ENERGIES
----------------

  NO   OCC          E(Eh)            E(eV)
   0   2.0000     -19.214872      -522.8632
   1   2.0000     -19.214872      -522.8632
   2   2.0000     -10.261935      -279.2414
   3   2.0000     -10.261935      -279.2414
   4   2.0000     -10.261664      -279.2341
   5   2.0000     -10.261656      -279.2339
   6   2.0000      -1.093259       -29.7491
   7   2.0000      -1.054882       -28.7048
   8   2.0000      -0.796643       -21.6778
   9   2.0000      -0.707428       -19.2501
  10   2.0000      -0.681713       -18.5503
  11   2.0000      -0.586194       -15.9511
  12   2.0000      -0.522499       -14.2179
  13   2.0000      -0.497637       -13.5414
  14   2.0000      -0.483241       -13.1496
  15   2.0000      -0.480757       -13.0821
  16   2.0000      -0.459573       -12.5056
  17   2.0000      -0.400371       -10.8946
  18   2.0000      -0.388549       -10.5730
  19   2.0000      -0.372776       -10.1438
  20   2.0000      -0.360285        -9.8038
  21   2.0000      -0.309633        -8.4255
  22   2.0000      -0.297782        -8.1031
  23   2.0000      -0.248563        -6.7637
  24   0.0000       0.006056         0.1648
  25   0.0000       0.017696         0.4815
  26   0.0000       0.019632         0.5342
  27   0.0000       0.023410         0.6370
  28   0.0000       0.041369         1.1257

MULLIKEN ATOMIC CHARGES
-----------------------
   0 C :   -0.213080
   1 C :   -0.212955
   2 H :    0.270737
   3 H :    0.219445
   4 O :   -0.554222
   5 C :   -0.213186
   6 C :   -0.213106
   7 H :    0.270843
   8 H :    0.219424
   9 O :   -0.554150
  10 H :    0.270775
  11 H :    0.219416
  12 H :    0.270719
  13 H :    0.219339
Sum of atomic charges:    0.0000000

LOEWDIN ATOMIC CHARGES
----------------------
   0 C :   -0.003016
   1 C :   -0.002991
   2 H :   -0.144940
   3 H :   -0.142480
   4 O :    0.580844
   5 C :   -0.003015
   6 C :   -0.002992
   7 H :   -0.144940
   8 H :   -0.142480
   9 O :    0.580845
  10 H :   -0.144939
  11 H :   -0.142478
  12 H :   -0.144939
  13 H :   -0.142478

  Mayer bond orders larger than 0.100000
B(  0-C ,  1-C ) :   0.9993 B(  0-C ,  6-C ) :   0.1147 B(  0-C ,  9-O ) :   0.8901
B(  0-C , 12-H ) :   0.9236 B(  0-C , 13-H ) :   0.9347 B(  1-C ,  2-H ) :   0.9235
B(  1-C ,  3-H ) :   0.9347 B(  1-C ,  4-O ) :   0.8902 B(  1-C ,  5-C ) :   0.1147
B(  4-O ,  5-C ) :   0.8901 B(  5-C ,  6-C ) :   0.9994 B(  5-C , 10-H ) :   0.9235
B(  5-C , 11-H ) :   0.9348 B(  6-C ,  7-H ) :   0.9234 B(  6-C ,  8-H ) :   0.9348
B(  6-C ,  9-O ) :   0.8902

Dispersion correction           -0.008935115
FINAL SINGLE POINT ENERGY      -307.443248933793

DIPOLE MOMENT
-------------

Method             : SCF
Type of density    : Electron Density
Multiplicity       :   1
Irrep              :   0
Energy             :  -307.4343138190320701 Eh
Relativity type    :
Basis              : AO
                                X                 Y                 Z
Electronic contribution:     -0.000002041      -0.000000426      -0.000001716
Nuclear contribution   :      0.000000978       0.000001632       0.000000845
                        -----------------------------------------
Total Dipole Moment    :     -0.000001063       0.000001206      -0.000000870
                        -----------------------------------------
Magnitude (a.u.)       :      0.000001828
Magnitude (Debye)      :      0.000004646

Rotational constants in cm-1:             0.171669             0.158105             0.092537
Rotational constants in MHz :          5146.503570          4739.855940          2774.198272

                             ****ORCA TERMINATED NORMALLY****
TOTAL RUN TIME: 0 days 0 hours 2 minutes 12 seconds 45 msec
