                         Program Version 6.0.0  -   RELEASE  -
|  1> !B3LYP aug-cc-pVTZ d3 TightSCF SlowConv RIJCOSX defgrid2
|  2>
|  3> %pal
|  4> nprocs 4
|  5> end
|  6>
|  7> %scf
|  8> MaxIter 1500
|  9> end
| 10>
| 11> %maxcore 3000
| 12>
| 13> !CPCM
| 14> %cpcm smd true
| 15> SMDsolvent "MeCN"
| 16> surfacetype gepol_ses
| 17> rsolv 2.19
| 18> end
| 19>
| 20> * xyz 0 1
| 21> C          -1.46623314437860      0.00011003866901      0.22138384864377
| 22> C          -0.72146821550608     -1.25556136021306     -0.22481675803302
| 23> C           0.73262554024155     -1.20678755712777      0.22695422389648
| 24> N           1.36188913054653     -0.00003006922571     -0.26913603967446
| 25> H           2.35649748423742      0.00003991081311     -0.05534562705397
| 26> C           0.73253990701766      1.20675926009467      0.22704999760922
| 27> C          -0.72144308108941      1.25558522950449     -0.22511308939031
| 28> H          -1.21016137962431      2.16287914838208      0.17240179576001
| 29> H          -0.74244280115887      1.32521043142589     -1.32823766113094
| 30> H           1.28241123896761      2.08000889090111     -0.16483545442717
| 31> H           0.76101367989671      1.27620173910910      1.34294202221842
| 32> H           1.28219641826463     -2.08008378359356     -0.16534993713385
| 33> H           0.76183907670503     -1.27697357186768      1.34279799676324
| 34> H          -1.21020710908673     -2.16266625677100      0.17304098184531
| 35> H          -0.74264320710994     -1.32505523098441     -1.32794132635220
| 36> H          -2.49942641463124      0.00003764837706     -0.16886144147242
| 37> H          -1.54597222329197      0.00034473250668      1.32642866793188
| 38> *
| 39>
| 40>                          ****END OF INPUT****

CARTESIAN COORDINATES (ANGSTROEM)
---------------------------------
  C     -1.466233    0.000110    0.221384
  C     -0.721468   -1.255561   -0.224817
  C      0.732626   -1.206788    0.226954
  N      1.361889   -0.000030   -0.269136
  H      2.356497    0.000040   -0.055346
  C      0.732540    1.206759    0.227050
  C     -0.721443    1.255585   -0.225113
  H     -1.210161    2.162879    0.172402
  H     -0.742443    1.325210   -1.328238
  H      1.282411    2.080009   -0.164835
  H      0.761014    1.276202    1.342942
  H      1.282196   -2.080084   -0.165350
  H      0.761839   -1.276974    1.342798
  H     -1.210207   -2.162666    0.173041
  H     -0.742643   -1.325055   -1.327941
  H     -2.499426    0.000038   -0.168861
  H     -1.545972    0.000345    1.326429

 Total Charge           Charge          ....    0
 Multiplicity           Mult            ....    1
 Number of Electrons    NEL             ....   48
 Basis Dimension        Dim             ....  529

ORBITAL ENERGIES
----------------

  NO   OCC          E(Eh)            E(eV)
   0   2.0000     -14.293126      -388.9357
   1   2.0000     -10.181710      -277.0584
   2   2.0000     -10.181703      -277.0582
   3   2.0000     -10.156445      -276.3709
   4   2.0000     -10.155388      -276.3421
   5   2.0000     -10.155359      -276.3414
   6   2.0000      -0.905262       -24.6334
   7   2.0000      -0.775077       -21.0909
   8   2.0000      -0.740437       -20.1483
   9   2.0000      -0.622662       -16.9435
  10   2.0000      -0.607321       -16.5260
  11   2.0000      -0.538271       -14.6471
  12   2.0000      -0.503123       -13.6907
  13   2.0000      -0.441194       -12.0055
  14   2.0000      -0.440281       -11.9806
  15   2.0000      -0.412708       -11.2304
  16   2.0000      -0.399285       -10.8651
  17   2.0000      -0.392690       -10.6856
  18   2.0000      -0.372197       -10.1280
  19   2.0000      -0.333580        -9.0772
  20   2.0000      -0.316424        -8.6103
  21   2.0000      -0.303367        -8.2550
  22   2.0000      -0.301286        -8.1984
  23   2.0000      -0.222304        -6.0492
  24   0.0000      -0.002198        -0.0598
  25   0.0000       0.011526         0.3136
  26   0.0000       0.013286         0.3615
  27   0.0000       0.014142         0.3848
  28   0.0000       0.034608         0.9417

MULLIKEN ATOMIC CHARGES
-----------------------
   0 C :   -0.222182
   1 C :   -0.329359
   2 C :   -0.214360
   3 N :   -0.367289
   4 H :   -0.055047
   5 C :   -0.214408
   6 C :   -0.329334
   7 H :    0.206349
   8 H :    0.111375
   9 H :    0.253370
  10 H :    0.129303
  11 H :    0.253432
  12 H :    0.129081
  13 H :    0.206420
  14 H :    0.111485
  15 H :    0.164270
  16 H :    0.166895
Sum of atomic charges:   -0.0000000

LOEWDIN ATOMIC CHARGES
----------------------
   0 C :    0.259131
   1 C :    0.258413
   2 C :    0.134348
   3 N :    0.549021
   4 H :   -0.285120
   5 C :    0.134467
   6 C :    0.258342
   7 H :   -0.130909
   8 H :   -0.135564
   9 H :   -0.133365
  10 H :   -0.122518
  11 H :   -0.133376
  12 H :   -0.122479
  13 H :   -0.130913
  14 H :   -0.135578
  15 H :   -0.131572
  16 H :   -0.132325

  Mayer bond orders larger than 0.100000
B(  0-C ,  1-C ) :   0.9240 B(  0-C ,  6-C ) :   0.9238 B(  0-C , 15-H ) :   0.9908
B(  0-C , 16-H ) :   0.9841 B(  1-C ,  2-C ) :   0.9361 B(  1-C , 13-H ) :   0.9301
B(  1-C , 14-H ) :   1.0506 B(  2-C ,  3-N ) :   0.8674 B(  2-C , 11-H ) :   0.9463
B(  2-C , 12-H ) :   1.0084 B(  3-N ,  4-H ) :   1.0522 B(  3-N ,  5-C ) :   0.8675
B(  5-C ,  6-C ) :   0.9364 B(  5-C ,  9-H ) :   0.9464 B(  5-C , 10-H ) :   1.0081
B(  6-C ,  7-H ) :   0.9301 B(  6-C ,  8-H ) :   1.0506

Dispersion correction           -0.024155082
FINAL SINGLE POINT ENERGY      -251.857989866140

DIPOLE MOMENT
-------------

Method             : SCF
Type of density    : Electron Density
Multiplicity       :   1
Irrep              :   0
Energy             :  -251.8338347845168244 Eh
Relativity type    :
Basis              : AO
                                X                 Y                 Z
Electronic contribution:      1.553526336       0.000233269      -0.570194481
Nuclear contribution   :     -1.432111276      -0.000148884       1.063195941
                        -----------------------------------------
Total Dipole Moment    :      0.121415060       0.000084385       0.493001460
                        -----------------------------------------
Magnitude (a.u.)       :      0.507732275
Magnitude (Debye)      :      1.290552881

Rotational constants in cm-1:             0.151873             0.148898             0.085191
Rotational constants in MHz :          4553.029667          4463.848294          2553.974723

                             ****ORCA TERMINATED NORMALLY****
TOTAL RUN TIME: 0 days 0 hours 2 minutes 27 seconds 887 msec
