                         Program Version 6.0.0  -   RELEASE  -
|  1> !r2SCANh aug-cc-pVTZ d3 TightSCF SlowConv RIJCOSX defgrid2
|  2>
|  3> %pal
|  4> nprocs 4
|  5> end
|  6>
|  7> %scf
|  8> MaxIter 1500
|  9> end
| 10>
| 11> %maxcore 3000
| 12>
| 13> !CPCM
| 14> %cpcm smd true
| 15> SMDsolvent "MeCN"
| 16> surfacetype gepol_ses
| 17> rsolv 2.19
| 18> end
| 19>
| 20> * xyz 0 1
| 21> C          -1.91227700743169     -0.69599807376451      0.00000859287457
| 22> C          -0.69912772414042     -1.38283601323851     -0.00000932512484
| 23> C           0.52347537335926     -0.70523730282103     -0.00001246655685
| 24> C           1.81729612506468     -1.46787011445991     -0.00005598554550
| 25> H           2.43257350979539     -1.22714923235884      0.88628677084497
| 26> H           1.63908285531001     -2.55536142781918      0.00004381576691
| 27> H           2.43241809059381     -1.22729433644522     -0.88654856025073
| 28> C           0.52347672072489      0.70522172319425      0.00000174792219
| 29> C           1.81729888680216      1.46785238267187     -0.00000613025126
| 30> H           2.43252823855944      1.22714967649232     -0.88638787088621
| 31> H           1.63908599746497      2.55534328050588     -0.00007448538319
| 32> H           2.43246782760812      1.22725777649857      0.88644905711652
| 33> C          -0.69912402686095      1.38282421177654      0.00001495362970
| 34> C          -1.91227492778965      0.69598941815697      0.00001994929433
| 35> H          -2.85546951493968      1.25047213510866      0.00003288713645
| 36> H          -0.69794916863420      2.47800578637616      0.00002276384868
| 37> H          -0.69795562041832     -2.47801791250149     -0.00001864212487
| 38> H          -2.85547323506782     -1.25047877737254      0.00001362768912
| 39> *
| 40>
| 41>                          ****END OF INPUT****

CARTESIAN COORDINATES (ANGSTROEM)
---------------------------------
  C     -1.912277   -0.695998    0.000009
  C     -0.699128   -1.382836   -0.000009
  C      0.523475   -0.705237   -0.000012
  C      1.817296   -1.467870   -0.000056
  H      2.432574   -1.227149    0.886287
  H      1.639083   -2.555361    0.000044
  H      2.432418   -1.227294   -0.886549
  C      0.523477    0.705222    0.000002
  C      1.817299    1.467852   -0.000006
  H      2.432528    1.227150   -0.886388
  H      1.639086    2.555343   -0.000074
  H      2.432468    1.227258    0.886449
  C     -0.699124    1.382824    0.000015
  C     -1.912275    0.695989    0.000020
  H     -2.855470    1.250472    0.000033
  H     -0.697949    2.478006    0.000023
  H     -0.697956   -2.478018   -0.000019
  H     -2.855473   -1.250479    0.000014

 Total Charge           Charge          ....    0
 Multiplicity           Mult            ....    1
 Number of Electrons    NEL             ....   58
 Basis Dimension        Dim             ....  598

ORBITAL ENERGIES
----------------

  NO   OCC          E(Eh)            E(eV)
   0   2.0000     -10.166062      -276.6326
   1   2.0000     -10.165600      -276.6201
   2   2.0000     -10.155122      -276.3349
   3   2.0000     -10.154650      -276.3221
   4   2.0000     -10.154054      -276.3059
   5   2.0000     -10.154011      -276.3047
   6   2.0000     -10.146227      -276.0929
   7   2.0000     -10.146217      -276.0926
   8   2.0000      -0.859557       -23.3897
   9   2.0000      -0.773886       -21.0585
  10   2.0000      -0.758373       -20.6364
  11   2.0000      -0.689011       -18.7489
  12   2.0000      -0.663862       -18.0646
  13   2.0000      -0.586703       -15.9650
  14   2.0000      -0.563234       -15.3264
  15   2.0000      -0.486656       -13.2426
  16   2.0000      -0.458522       -12.4770
  17   2.0000      -0.431637       -11.7454
  18   2.0000      -0.420558       -11.4440
  19   2.0000      -0.396763       -10.7965
  20   2.0000      -0.388918       -10.5830
  21   2.0000      -0.380864       -10.3638
  22   2.0000      -0.366298        -9.9675
  23   2.0000      -0.365908        -9.9569
  24   2.0000      -0.344539        -9.3754
  25   2.0000      -0.318655        -8.6710
  26   2.0000      -0.318018        -8.6537
  27   2.0000      -0.244926        -6.6648
  28   2.0000      -0.234076        -6.3695
  29   0.0000      -0.019667        -0.5352
  30   0.0000      -0.018879        -0.5137
  31   0.0000       0.010557         0.2873
  32   0.0000       0.022821         0.6210
  33   0.0000       0.026377         0.7177

MULLIKEN ATOMIC CHARGES
-----------------------
   0 C :   -0.294389
   1 C :   -1.044930
   2 C :    1.082165
   3 C :   -0.718640
   4 H :    0.210710
   5 H :    0.084397
   6 H :    0.211194
   7 C :    1.083142
   8 C :   -0.719613
   9 H :    0.210862
  10 H :    0.085003
  11 H :    0.210414
  12 C :   -1.046129
  13 C :   -0.292757
  14 H :    0.611290
  15 H :   -0.142462
  16 H :   -0.142599
  17 H :    0.612344
Sum of atomic charges:    0.0000000

LOEWDIN ATOMIC CHARGES
----------------------
   0 C :    0.177546
   1 C :    0.197949
   2 C :   -0.123821
   3 C :    0.571813
   4 H :   -0.154850
   5 H :   -0.167361
   6 H :   -0.154803
   7 C :   -0.123822
   8 C :    0.571812
   9 H :   -0.154809
  10 H :   -0.167361
  11 H :   -0.154844
  12 C :    0.197948
  13 C :    0.177547
  14 H :   -0.175176
  15 H :   -0.171297
  16 H :   -0.171297
  17 H :   -0.175175

  Mayer bond orders larger than 0.100000
B(  0-C ,  1-C ) :   0.9059 B(  0-C ,  2-C ) :   0.1803 B(  0-C , 12-C ) :  -0.1127
B(  0-C , 13-C ) :   0.8473 B(  0-C , 16-H ) :  -0.1029 B(  0-C , 17-H ) :   0.4525
B(  1-C ,  2-C ) :   0.3972 B(  1-C ,  7-C ) :  -0.1685 B(  1-C , 12-C ) :   0.1049
B(  1-C , 13-C ) :  -0.1148 B(  1-C , 16-H ) :   1.6752 B(  1-C , 17-H ) :  -0.1241
B(  2-C ,  3-C ) :   0.1331 B(  2-C ,  7-C ) :   1.1757 B(  2-C ,  8-C ) :   0.1544
B(  2-C , 12-C ) :  -0.1699 B(  2-C , 16-H ) :  -0.1847 B(  3-C ,  4-H ) :   0.9991
B(  3-C ,  5-H ) :   1.0871 B(  3-C ,  6-H ) :   0.9982 B(  3-C ,  7-C ) :   0.1529
B(  7-C ,  8-C ) :   0.1332 B(  7-C , 12-C ) :   0.3944 B(  7-C , 13-C ) :   0.1813
B(  7-C , 15-H ) :  -0.1859 B(  8-C ,  9-H ) :   0.9984 B(  8-C , 10-H ) :   1.0869
B(  8-C , 11-H ) :   0.9997 B( 12-C , 13-C ) :   0.9047 B( 12-C , 14-H ) :  -0.1246
B( 12-C , 15-H ) :   1.6755 B( 13-C , 14-H ) :   0.4541 B( 13-C , 15-H ) :  -0.1029

Dispersion correction           -0.005519704
FINAL SINGLE POINT ENERGY      -310.802326185461

DIPOLE MOMENT
-------------

Method             : SCF
Type of density    : Electron Density
Multiplicity       :   1
Irrep              :   0
Energy             :  -310.7968064810559099 Eh
Relativity type    :
Basis              : AO
                                X                 Y                 Z
Electronic contribution:     -5.150889911       0.000008250      -0.000511264
Nuclear contribution   :      5.585292942      -0.000004943      -0.000112342
                        -----------------------------------------
Total Dipole Moment    :      0.434403031       0.000003307      -0.000623605
                        -----------------------------------------
Magnitude (a.u.)       :      0.434403479
Magnitude (Debye)      :      1.104165893

Rotational constants in cm-1:             0.105881             0.071625             0.043421
Rotational constants in MHz :          3174.222662          2147.253088          1301.724728

                             ****ORCA TERMINATED NORMALLY****
TOTAL RUN TIME: 0 days 0 hours 5 minutes 27 seconds 127 msec
