                         Program Version 6.0.0  -   RELEASE  -
|  1> !r2SCAN aug-cc-pVTZ d3 TightSCF SlowConv RIJCOSX defgrid2
|  2>
|  3> %pal
|  4> nprocs 4
|  5> end
|  6>
|  7> %scf
|  8> MaxIter 1500
|  9> end
| 10>
| 11> %maxcore 3000
| 12>
| 13> !CPCM
| 14> %cpcm smd true
| 15> SMDsolvent "MeCN"
| 16> surfacetype gepol_ses
| 17> rsolv 2.19
| 18> end
| 19>
| 20> * xyz 0 1
| 21> C          -0.04647165541644      1.20175007347372     -0.00553050489943
| 22> C          -1.43870555706960      1.21239589451355     -0.01141185238374
| 23> C          -2.17026954226625      0.01947100552438     -0.01038224809804
| 24> C          -1.46074461278387     -1.19072092102756     -0.00906771027749
| 25> C          -0.07326224349215     -1.20622095149758     -0.00304890212203
| 26> C           0.65481182780619     -0.00920634999724     -0.00042230964481
| 27> C           2.14757419996696     -0.09199024361869      0.00402287730635
| 28> O           2.70671249810890     -1.16711072436472      0.00700907779024
| 29> C           2.93897617802630      1.19587993441016      0.00548036505340
| 30> H           4.01096899238357      0.95048347070739      0.01057835934714
| 31> H           2.69949954286715      1.80719828499160      0.89313893013017
| 32> H           2.70739245523851      1.80422714815017     -0.88630361962564
| 33> H           0.48538632677828     -2.14590904376286     -0.00336087408771
| 34> H          -2.01268479893227     -2.13645944857989     -0.01530874702934
| 35> C          -3.67109078228289      0.02991456776547      0.01617054647882
| 36> H          -4.04511368194266     -0.09506499069857      1.04953886808692
| 37> H          -4.07732921380228      0.97936405308667     -0.36930347193269
| 38> H          -4.09069162992769     -0.79514284196197     -0.58364116879760
| 39> H          -1.97059871816062      2.16919815395977     -0.01931477093783
| 40> H           0.49134391490087      2.15362812892619     -0.00824554435670
| 41> *
| 42>
| 43>                          ****END OF INPUT****

CARTESIAN COORDINATES (ANGSTROEM)
---------------------------------
  C     -0.046472    1.201750   -0.005531
  C     -1.438706    1.212396   -0.011412
  C     -2.170270    0.019471   -0.010382
  C     -1.460745   -1.190721   -0.009068
  C     -0.073262   -1.206221   -0.003049
  C      0.654812   -0.009206   -0.000422
  C      2.147574   -0.091990    0.004023
  O      2.706712   -1.167111    0.007009
  C      2.938976    1.195880    0.005480
  H      4.010969    0.950483    0.010578
  H      2.699500    1.807198    0.893139
  H      2.707392    1.804227   -0.886304
  H      0.485386   -2.145909   -0.003361
  H     -2.012685   -2.136459   -0.015309
  C     -3.671091    0.029915    0.016171
  H     -4.045114   -0.095065    1.049539
  H     -4.077329    0.979364   -0.369303
  H     -4.090692   -0.795143   -0.583641
  H     -1.970599    2.169198   -0.019315
  H      0.491344    2.153628   -0.008246

 Total Charge           Charge          ....    0
 Multiplicity           Mult            ....    1
 Number of Electrons    NEL             ....   72
 Basis Dimension        Dim             ....  690

ORBITAL ENERGIES
----------------

  NO   OCC          E(Eh)            E(eV)
   0   2.0000     -18.941153      -515.4150
   1   2.0000     -10.122951      -275.4595
   2   2.0000     -10.059076      -273.7214
   3   2.0000     -10.048710      -273.4393
   4   2.0000     -10.047473      -273.4056
   5   2.0000     -10.044721      -273.3307
   6   2.0000     -10.041404      -273.2405
   7   2.0000     -10.041225      -273.2356
   8   2.0000     -10.029963      -272.9292
   9   2.0000     -10.028890      -272.9000
  10   2.0000      -1.008113       -27.4321
  11   2.0000      -0.831716       -22.6322
  12   2.0000      -0.753551       -20.5052
  13   2.0000      -0.719008       -19.5652
  14   2.0000      -0.700283       -19.0557
  15   2.0000      -0.655515       -17.8375
  16   2.0000      -0.577553       -15.7160
  17   2.0000      -0.570671       -15.5287
  18   2.0000      -0.516647       -14.0587
  19   2.0000      -0.462110       -12.5746
  20   2.0000      -0.440251       -11.9798
  21   2.0000      -0.418305       -11.3826
  22   2.0000      -0.410069       -11.1586
  23   2.0000      -0.403591       -10.9823
  24   2.0000      -0.390447       -10.6246
  25   2.0000      -0.388043       -10.5592
  26   2.0000      -0.386042       -10.5047
  27   2.0000      -0.351045        -9.5524
  28   2.0000      -0.344816        -9.3829
  29   2.0000      -0.343552        -9.3485
  30   2.0000      -0.323272        -8.7967
  31   2.0000      -0.321493        -8.7483
  32   2.0000      -0.305021        -8.3000
  33   2.0000      -0.244157        -6.6438
  34   2.0000      -0.234489        -6.3808
  35   2.0000      -0.220425        -5.9981
  36   0.0000      -0.083383        -2.2690
  37   0.0000      -0.041619        -1.1325
  38   0.0000       0.005732         0.1560
  39   0.0000       0.006664         0.1813
  40   0.0000       0.019236         0.5234

MULLIKEN ATOMIC CHARGES
-----------------------
   0 C :   -0.420601
   1 C :   -1.130027
   2 C :    1.660963
   3 C :   -1.044388
   4 C :   -1.199651
   5 C :    1.638023
   6 C :    0.918504
   7 O :   -0.979529
   8 C :   -0.524386
   9 H :    0.150592
  10 H :    0.236203
  11 H :    0.236219
  12 H :    0.037576
  13 H :    0.260505
  14 C :   -0.695065
  15 H :    0.242284
  16 H :    0.177359
  17 H :    0.189522
  18 H :    0.166841
  19 H :    0.079055
Sum of atomic charges:    0.0000000

LOEWDIN ATOMIC CHARGES
----------------------
   0 C :    0.207445
   1 C :    0.226917
   2 C :   -0.133106
   3 C :    0.222691
   4 C :    0.193281
   5 C :   -0.140714
   6 C :   -0.555126
   7 O :    0.481632
   8 C :    0.569002
   9 H :   -0.178994
  10 H :   -0.158970
  11 H :   -0.158913
  12 H :   -0.187237
  13 H :   -0.161152
  14 C :    0.583991
  15 H :   -0.148147
  16 H :   -0.164788
  17 H :   -0.160622
  18 H :   -0.162279
  19 H :   -0.174910

  Mayer bond orders larger than 0.100000
B(  0-C ,  1-C ) :   1.0029 B(  0-C ,  3-C ) :  -0.1832 B(  0-C ,  4-C ) :  -0.4844
B(  0-C ,  5-C ) :   0.3022 B(  0-C , 19-H ) :   1.2611 B(  1-C ,  2-C ) :   0.4315
B(  1-C ,  5-C ) :  -0.1220 B(  1-C , 18-H ) :   1.0932 B(  2-C ,  3-C ) :   0.5445
B(  2-C , 12-H ) :  -0.1470 B(  2-C , 14-C ) :   0.2556 B(  3-C ,  4-C ) :   1.4242
B(  3-C ,  5-C ) :  -0.1636 B(  3-C , 13-H ) :   0.9119 B(  3-C , 14-C ) :   0.1572
B(  4-C ,  5-C ) :  -0.1092 B(  4-C ,  6-C ) :   0.2090 B(  4-C , 12-H ) :   1.2022
B(  5-C ,  6-C ) :   0.4525 B(  5-C ,  7-O ) :   0.3090 B(  5-C ,  8-C ) :   0.1426
B(  5-C , 19-H ) :  -0.1481 B(  6-C ,  7-O ) :   0.6702 B(  6-C ,  8-C ) :   0.9074
B(  7-O , 12-H ) :   0.1729 B(  8-C ,  9-H ) :   0.9463 B(  8-C , 10-H ) :   0.9644
B(  8-C , 11-H ) :   0.9647 B( 14-C , 15-H ) :   0.9627 B( 14-C , 16-H ) :   1.0157
B( 14-C , 17-H ) :   1.0065

Dispersion correction           -0.006214359
FINAL SINGLE POINT ENERGY      -424.141457694207

DIPOLE MOMENT
-------------

Method             : SCF
Type of density    : Electron Density
Multiplicity       :   1
Irrep              :   0
Energy             :  -424.1352433348797604 Eh
Relativity type    :
Basis              : AO
                                X                 Y                 Z
Electronic contribution:      4.003980837      -3.062287326      -0.037444702
Nuclear contribution   :     -5.402543283       4.383900218       0.062989255
                        -----------------------------------------
Total Dipole Moment    :     -1.398562446       1.321612893       0.025544553
                        -----------------------------------------
Magnitude (a.u.)       :      1.924393431
Magnitude (Debye)      :      4.891419375

Rotational constants in cm-1:             0.120803             0.026206             0.021712
Rotational constants in MHz :          3621.570490           785.633269           650.900953

                             ****ORCA TERMINATED NORMALLY****
TOTAL RUN TIME: 0 days 0 hours 3 minutes 18 seconds 918 msec
