                         Program Version 6.0.0  -   RELEASE  -
|  1> !B3LYP opt aug-cc-pVTZ d3 TightSCF SlowConv RIJCOSX defgrid2
|  2>
|  3> %pal
|  4> nprocs 8
|  5> end
|  6>
|  7> %scf
|  8> MaxIter 1500
|  9> end
| 10>
| 11> %maxcore 3500
| 12>
| 13> !CPCM
| 14> %cpcm smd true
| 15> SMDsolvent "MeCN"
| 16> surfacetype gepol_ses
| 17> rsolv 2.19
| 18> end
| 19>
| 20> * xyz 1 2
| 21>   C           1.35794743520226     -0.82343888149801      0.62503760179032
| 22>   C           2.62204331912480     -1.37307199623954      0.64438113329288
| 23>   C           3.70270383764418     -0.68068705785656      0.08692020761960
| 24>   C           3.52324007079477      0.59024413297470     -0.47563343780460
| 25>   C           2.27340518345818      1.16739244083210     -0.49151833267991
| 26>   C           1.19323039834760      0.43962597955069      0.03135934728270
| 27>   O           0.00003211824627      1.08120388224264     -0.00076687011237
| 28>   C          -1.19323879973706      0.43958560398753     -0.03220584762976
| 29>   C          -2.27316379728189      1.16730127356112      0.49116060629424
| 30>   C          -3.52298315014212      0.59004715952487      0.47604715363499
| 31>   C          -3.70269109288860     -0.68092930740974     -0.08628673734290
| 32>   C          -2.62227913460788     -1.37327206027011     -0.64424697036890
| 33>   C          -1.35819304380854     -0.82351032694728     -0.62564656217702
| 34>   H          -0.52538189795899     -1.31860043211393     -1.10576384382373
| 35>   H          -2.78080278528441     -2.33252724969744     -1.11891466447988
| 36>   H          -4.69109841631453     -1.12097691071492     -0.11285256134953
| 37>   H          -4.36662162926436      1.12022838265468      0.89754597610327
| 38>   H          -2.09413528429913      2.14499850675855      0.91871836965091
| 39>   H           2.09450056697748      2.14501886710762     -0.91928894401230
| 40>   H           4.36709812494520      1.12043478066670     -0.89667689047034
| 41>   H           4.69112624309043     -1.12066773457928      0.11405827295894
| 42>   H           2.78043761217983     -2.33224411125622      1.11926027373183
| 43>   H           0.52485492157650     -1.31839924127816      1.10477831989159
| 44> *
| 45>
| 46>                          ****END OF INPUT****
 Total Charge           Charge          ....    1
 Multiplicity           Mult            ....    2
 Number of Electrons    NEL             ....   89
Dispersion correction           -0.046125832
FINAL SINGLE POINT ENERGY      -538.222444644175
Dispersion correction             ... done (  0.0 sec)
Dispersion correction           -0.046094038
FINAL SINGLE POINT ENERGY      -538.222503731475
Dispersion correction             ... done (  0.0 sec)
Dispersion correction           -0.046131737
FINAL SINGLE POINT ENERGY      -538.222512514557
Dispersion correction             ... done (  0.0 sec)
Dispersion correction           -0.046090805
FINAL SINGLE POINT ENERGY      -538.222403539099
Dispersion correction             ... done (  0.0 sec)
Dispersion correction           -0.046086021
FINAL SINGLE POINT ENERGY      -538.222443750146
Dispersion correction             ... done (  0.1 sec)
                    ***********************HURRAY********************

CARTESIAN COORDINATES (ANGSTROEM)
---------------------------------
  C      1.369130   -0.832791    0.616794
  C      2.634656   -1.377027    0.632788
  C      3.712147   -0.674317    0.085080
  C      3.527980    0.600802   -0.464740
  C      2.275710    1.170343   -0.478719
  C      1.195698    0.434922    0.034854
  O      0.000074    1.065953   -0.001335
  C     -1.195602    0.434780   -0.036565
  C     -2.275102    1.170057    0.478095
  C     -3.527396    0.600378    0.465748
  C     -3.712148   -0.674726   -0.083723
  C     -2.635219   -1.377367   -0.632700
  C     -1.369736   -0.832933   -0.618279
  H     -0.542138   -1.338490   -1.090797
  H     -2.796991   -2.340437   -1.093975
  H     -4.700766   -1.110110   -0.105330
  H     -4.368364    1.138101    0.878107
  H     -2.094364    2.149451    0.896128
  H      2.095385    2.149757   -0.896937
  H      4.369437    1.138633   -0.875908
  H      4.700785   -1.109635    0.107784
  H      2.796036   -2.340019    1.094312
  H      0.540820   -1.337569    1.088783

 Multiplicity           Mult            ....    2
 Number of Electrons    NEL             ....   89
 Basis Dimension        Dim             ....  828

ORBITAL ENERGIES
----------------
                 SPIN UP ORBITALS
  NO   OCC          E(Eh)            E(eV)
   0   1.0000     -19.258266      -524.0440
   1   1.0000     -10.291393      -280.0430
   2   1.0000     -10.291121      -280.0356
   3   1.0000     -10.215952      -277.9902
   4   1.0000     -10.215890      -277.9885
   5   1.0000     -10.214478      -277.9501
   6   1.0000     -10.214398      -277.9479
   7   1.0000     -10.212217      -277.8886
   8   1.0000     -10.212076      -277.8847
   9   1.0000     -10.204700      -277.6840
  10   1.0000     -10.204690      -277.6837
  11   1.0000     -10.204533      -277.6794
  12   1.0000     -10.204511      -277.6789
  13   1.0000      -1.167570       -31.7712
  14   1.0000      -0.906267       -24.6608
  15   1.0000      -0.887501       -24.1501
  16   1.0000      -0.812936       -22.1211
  17   1.0000      -0.790763       -21.5178
  18   1.0000      -0.783724       -21.3262
  19   1.0000      -0.760702       -20.6997
  20   1.0000      -0.687549       -18.7092
  21   1.0000      -0.657490       -17.8912
  22   1.0000      -0.637973       -17.3601
  23   1.0000      -0.613562       -16.6959
  24   1.0000      -0.585004       -15.9188
  25   1.0000      -0.541314       -14.7299
  26   1.0000      -0.524631       -14.2759
  27   1.0000      -0.524440       -14.2707
  28   1.0000      -0.516464       -14.0537
  29   1.0000      -0.474740       -12.9183
  30   1.0000      -0.472040       -12.8449
  31   1.0000      -0.459365       -12.4999
  32   1.0000      -0.458672       -12.4811
  33   1.0000      -0.449662       -12.2359
  34   1.0000      -0.442696       -12.0464
  35   1.0000      -0.407233       -11.0814
  36   1.0000      -0.398649       -10.8478
  37   1.0000      -0.391382       -10.6500
  38   1.0000      -0.388745       -10.5783
  39   1.0000      -0.371072       -10.0974
  40   1.0000      -0.369837       -10.0638
  41   1.0000      -0.297745        -8.1020
  42   1.0000      -0.294163        -8.0046
  43   1.0000      -0.290214        -7.8971
  44   1.0000      -0.265566        -7.2264
  45   0.0000      -0.058127        -1.5817
  46   0.0000      -0.045699        -1.2435
  47   0.0000      -0.039039        -1.0623
  48   0.0000      -0.031996        -0.8707
  49   0.0000      -0.007655        -0.2083

                 SPIN DOWN ORBITALS
  NO   OCC          E(Eh)            E(eV)
   0   1.0000     -19.251094      -523.8489
   1   1.0000     -10.290349      -280.0146
   2   1.0000     -10.290083      -280.0074
   3   1.0000     -10.214361      -277.9469
   4   1.0000     -10.214297      -277.9451
   5   1.0000     -10.211445      -277.8675
   6   1.0000     -10.211372      -277.8655
   7   1.0000     -10.210861      -277.8517
   8   1.0000     -10.210719      -277.8478
   9   1.0000     -10.205368      -277.7022
  10   1.0000     -10.205356      -277.7019
  11   1.0000     -10.205080      -277.6943
  12   1.0000     -10.205058      -277.6937
  13   1.0000      -1.154751       -31.4224
  14   1.0000      -0.901642       -24.5349
  15   1.0000      -0.882929       -24.0257
  16   1.0000      -0.808171       -21.9915
  17   1.0000      -0.788485       -21.4558
  18   1.0000      -0.781523       -21.2663
  19   1.0000      -0.752438       -20.4749
  20   1.0000      -0.682599       -18.5744
  21   1.0000      -0.655270       -17.8308
  22   1.0000      -0.634424       -17.2636
  23   1.0000      -0.610418       -16.6103
  24   1.0000      -0.582745       -15.8573
  25   1.0000      -0.538777       -14.6609
  26   1.0000      -0.521743       -14.1973
  27   1.0000      -0.516318       -14.0497
  28   1.0000      -0.504470       -13.7273
  29   1.0000      -0.470369       -12.7994
  30   1.0000      -0.469141       -12.7660
  31   1.0000      -0.457226       -12.4418
  32   1.0000      -0.456787       -12.4298
  33   1.0000      -0.444131       -12.0854
  34   1.0000      -0.436665       -11.8823
  35   1.0000      -0.397699       -10.8219
  36   1.0000      -0.397098       -10.8056
  37   1.0000      -0.388442       -10.5700
  38   1.0000      -0.379740       -10.3333
  39   1.0000      -0.367052        -9.9880
  40   1.0000      -0.361595        -9.8395
  41   1.0000      -0.290868        -7.9149
  42   1.0000      -0.286029        -7.7832
  43   1.0000      -0.273171        -7.4334
  44   0.0000      -0.202978        -5.5233
  45   0.0000      -0.046798        -1.2734
  46   0.0000      -0.038981        -1.0607
  47   0.0000      -0.031037        -0.8446
  48   0.0000      -0.015990        -0.4351

MULLIKEN ATOMIC CHARGES AND SPIN POPULATIONS
--------------------------------------------
   0 C :   -0.389171    0.096397
   1 C :   -0.647851   -0.049300
   2 C :   -0.483782    0.207160
   3 C :   -0.380824   -0.036133
   4 C :   -1.048045    0.072584
   5 C :    1.465477    0.102434
   6 O :   -0.728269    0.231624
   7 C :    1.472874    0.101965
   8 C :   -1.063457    0.073230
   9 C :   -0.377978   -0.035999
  10 C :   -0.471008    0.206878
  11 C :   -0.638493   -0.049328
  12 C :   -0.395274    0.097213
  13 H :    0.532831   -0.006919
  14 H :    0.403513    0.003510
  15 H :    0.499681    0.001930
  16 H :    0.412797    0.000889
  17 H :    0.485481   -0.009791
  18 H :    0.487416   -0.009304
  19 H :    0.421133    0.001136
  20 H :    0.502020    0.002328
  21 H :    0.400452    0.003141
  22 H :    0.540475   -0.005645
Sum of atomic charges         :    1.0000000

LOEWDIN ATOMIC CHARGES AND SPIN POPULATIONS
-------------------------------------------
   0 C :    0.247308    0.064160
   1 C :    0.249432    0.027115
   2 C :    0.257163    0.102092
   3 C :    0.242112    0.028770
   4 C :    0.256123    0.055528
   5 C :   -0.315616    0.088081
   6 O :    0.689474    0.192489
   7 C :   -0.315563    0.087838
   8 C :    0.256173    0.055495
   9 C :    0.242087    0.028679
  10 C :    0.257093    0.101875
  11 C :    0.249392    0.027072
  12 C :    0.246904    0.064041
  13 H :   -0.161597    0.010666
  14 H :   -0.155836   -0.002658
  15 H :   -0.153690    0.023974
  16 H :   -0.157854   -0.002142
  17 H :   -0.152207    0.008515
  18 H :   -0.152181    0.008510
  19 H :   -0.157866   -0.002132
  20 H :   -0.153654    0.024021
  21 H :   -0.155892   -0.002667
  22 H :   -0.161304    0.010679

  Mayer bond orders larger than 0.100000
B(  0-C ,  1-C ) :   1.2495 B(  0-C ,  2-C ) :   0.1042 B(  0-C ,  4-C ) :   0.2166
B(  0-C ,  5-C ) :   0.7234 B(  0-C , 12-C ) :   0.1961 B(  0-C , 22-H ) :   0.5260
B(  1-C ,  2-C ) :   1.2433 B(  1-C ,  4-C ) :  -0.1020 B(  1-C ,  5-C ) :  -0.3071
B(  1-C , 21-H ) :   0.7816 B(  2-C ,  3-C ) :   1.1712 B(  2-C ,  4-C ) :   0.3445
B(  2-C ,  5-C ) :  -0.1124 B(  2-C , 20-H ) :   0.5769 B(  3-C ,  4-C ) :   1.3800
B(  3-C ,  5-C ) :  -0.3675 B(  3-C , 19-H ) :   0.7515 B(  4-C ,  5-C ) :   0.2727
B(  4-C ,  6-O ) :   0.2646 B(  4-C , 18-H ) :   0.4139 B(  5-C ,  6-O ) :   0.6220
B(  5-C ,  7-C ) :   0.1027 B(  6-O ,  7-C ) :   0.6207 B(  6-O ,  8-C ) :   0.2655
B(  7-C ,  8-C ) :   0.2626 B(  7-C ,  9-C ) :  -0.3738 B(  7-C , 11-C ) :  -0.3028
B(  7-C , 12-C ) :   0.7225 B(  8-C ,  9-C ) :   1.4171 B(  8-C , 10-C ) :   0.3445
B(  8-C , 11-C ) :  -0.1064 B(  8-C , 12-C ) :   0.2066 B(  8-C , 17-H ) :   0.4167
B(  9-C , 10-C ) :   1.1393 B(  9-C , 16-H ) :   0.7621 B( 10-C , 11-C ) :   1.2342
B( 10-C , 12-C ) :   0.1114 B( 10-C , 15-H ) :   0.5847 B( 11-C , 12-C ) :   1.2503
B( 11-C , 14-H ) :   0.7773 B( 12-C , 13-H ) :   0.5347

Dispersion correction           -0.046080229
FINAL SINGLE POINT ENERGY      -538.222470575115

DIPOLE MOMENT
-------------

Method             : SCF
Type of density    : Electron Density
Multiplicity       :   2
Irrep              :   0
Energy             :  -538.1763903465928252 Eh
Relativity type    :
Basis              : AO
                                X                 Y                 Z
Electronic contribution:      0.001076279       2.168575164       0.001254806
Nuclear contribution   :     -0.000280975      -2.673215282       0.003979794
                        -----------------------------------------
Total Dipole Moment    :      0.000795304      -0.504640118       0.005234600
                        -----------------------------------------
Magnitude (a.u.)       :      0.504667893
Magnitude (Debye)      :      1.282763841

Rotational constants in cm-1:             0.082576             0.014705             0.013219
Rotational constants in MHz :          2475.575878           440.830340           396.309648

                             ****ORCA TERMINATED NORMALLY****
TOTAL RUN TIME: 0 days 0 hours 50 minutes 41 seconds 174 msec
