                         Program Version 6.0.0  -   RELEASE  -
|  1> !B3LYP aug-cc-pVTZ d3 TightSCF SlowConv RIJCOSX defgrid2
|  2>
|  3> %pal
|  4> nprocs 4
|  5> end
|  6>
|  7> %scf
|  8> MaxIter 1500
|  9> end
| 10>
| 11> %maxcore 3000
| 12>
| 13> !CPCM
| 14> %cpcm smd true
| 15> SMDsolvent "MeCN"
| 16> surfacetype gepol_ses
| 17> rsolv 2.19
| 18> end
| 19>
| 20> * xyz 0 1
| 21> C           2.39749463161436     -0.83149819893554      0.67669387485363
| 22> C           1.27172397639116     -0.40047992295486     -0.03969915484816
| 23> C           1.38259238776027      0.76303550152059     -0.81642324820039
| 24> C           2.58576374302039      1.45963699946448     -0.89073073539891
| 25> C           3.70030483512470      1.01412413753758     -0.17987702815859
| 26> C           3.60056124987950     -0.13306932613824      0.60654243714533
| 27> H           4.46466138277505     -0.48209902986176      1.17996120108222
| 28> H           4.64383968195764      1.56540648474814     -0.23276704782048
| 29> H           2.65415437190379      2.35888092106518     -1.51038356423303
| 30> H           0.51264382726920      1.11680700092055     -1.37721808377949
| 31> C          -0.00001123541006     -1.16417502511622     -0.00002273576044
| 32> C          -0.00001884782649     -2.50996676952303     -0.00003277235160
| 33> H          -0.93225135885572     -3.07886784376654      0.08064455143521
| 34> H           0.93220419630722     -3.07888213761201     -0.08071574786352
| 35> C          -1.27174210287451     -0.40047320911747      0.03966757754902
| 36> C          -2.39750985071673     -0.83146289450512     -0.67674719863415
| 37> C          -3.60057439169967     -0.13303092760862     -0.60657919634084
| 38> C          -3.70031659242385      1.01413981080717      0.17987332068473
| 39> C          -2.58577653905984      1.45962201354211      0.89074922577948
| 40> C          -1.38260956202413      0.76301589591316      0.81642903255360
| 41> H          -0.51266418903044      1.11676009652396      1.37724534040847
| 42> H          -2.65416367308445      2.35884547498639      1.51043035509866
| 43> H          -4.64384894904450      1.56542539828851      0.23277593005599
| 44> H          -4.46467229568686     -0.48204204645132     -1.18001194866167
| 45> H          -2.31694066862491     -1.71619568559047     -1.31480317865473
| 46> H           2.31692587235889     -1.71625071813661      1.31472229405965
| 47> *
| 48>
| 49>                          ****END OF INPUT****

CARTESIAN COORDINATES (ANGSTROEM)
---------------------------------
  C      2.397495   -0.831498    0.676694
  C      1.271724   -0.400480   -0.039699
  C      1.382592    0.763036   -0.816423
  C      2.585764    1.459637   -0.890731
  C      3.700305    1.014124   -0.179877
  C      3.600561   -0.133069    0.606542
  H      4.464661   -0.482099    1.179961
  H      4.643840    1.565406   -0.232767
  H      2.654154    2.358881   -1.510384
  H      0.512644    1.116807   -1.377218
  C     -0.000011   -1.164175   -0.000023
  C     -0.000019   -2.509967   -0.000033
  H     -0.932251   -3.078868    0.080645
  H      0.932204   -3.078882   -0.080716
  C     -1.271742   -0.400473    0.039668
  C     -2.397510   -0.831463   -0.676747
  C     -3.600574   -0.133031   -0.606579
  C     -3.700317    1.014140    0.179873
  C     -2.585777    1.459622    0.890749
  C     -1.382610    0.763016    0.816429
  H     -0.512664    1.116760    1.377245
  H     -2.654164    2.358845    1.510430
  H     -4.643849    1.565425    0.232776
  H     -4.464672   -0.482042   -1.180012
  H     -2.316941   -1.716196   -1.314803
  H      2.316926   -1.716251    1.314722

 Total Charge           Charge          ....    0
 Multiplicity           Mult            ....    1
 Number of Electrons    NEL             ....   96
 Basis Dimension        Dim             ....  920

ORBITAL ENERGIES
----------------

  NO   OCC          E(Eh)            E(eV)
   0   2.0000     -10.191371      -277.3213
   1   2.0000     -10.187540      -277.2171
   2   2.0000     -10.187529      -277.2168
   3   2.0000     -10.176607      -276.9196
   4   2.0000     -10.176594      -276.9192
   5   2.0000     -10.176465      -276.9157
   6   2.0000     -10.176456      -276.9154
   7   2.0000     -10.176073      -276.9050
   8   2.0000     -10.176059      -276.9046
   9   2.0000     -10.175791      -276.8973
  10   2.0000     -10.175784      -276.8972
  11   2.0000     -10.175507      -276.8896
  12   2.0000     -10.175506      -276.8896
  13   2.0000     -10.166657      -276.6488
  14   2.0000      -0.870145       -23.6778
  15   2.0000      -0.853723       -23.2310
  16   2.0000      -0.804081       -21.8801
  17   2.0000      -0.747128       -20.3304
  18   2.0000      -0.746981       -20.3264
  19   2.0000      -0.741606       -20.1801
  20   2.0000      -0.715978       -19.4828
  21   2.0000      -0.629721       -17.1356
  22   2.0000      -0.606801       -16.5119
  23   2.0000      -0.598266       -16.2797
  24   2.0000      -0.595404       -16.2018
  25   2.0000      -0.548382       -14.9222
  26   2.0000      -0.520700       -14.1690
  27   2.0000      -0.497138       -13.5278
  28   2.0000      -0.464484       -12.6392
  29   2.0000      -0.459912       -12.5149
  30   2.0000      -0.449067       -12.2197
  31   2.0000      -0.438943       -11.9442
  32   2.0000      -0.435983       -11.8637
  33   2.0000      -0.417439       -11.3591
  34   2.0000      -0.416927       -11.3452
  35   2.0000      -0.414424       -11.2770
  36   2.0000      -0.381209       -10.3732
  37   2.0000      -0.371595       -10.1116
  38   2.0000      -0.371546       -10.1103
  39   2.0000      -0.354930        -9.6581
  40   2.0000      -0.343729        -9.3533
  41   2.0000      -0.336483        -9.1562
  42   2.0000      -0.331114        -9.0101
  43   2.0000      -0.301030        -8.1914
  44   2.0000      -0.262081        -7.1316
  45   2.0000      -0.257929        -7.0186
  46   2.0000      -0.255159        -6.9432
  47   2.0000      -0.225657        -6.1404
  48   0.0000      -0.045844        -1.2475
  49   0.0000      -0.023450        -0.6381
  50   0.0000      -0.019017        -0.5175
  51   0.0000      -0.006102        -0.1660
  52   0.0000      -0.003971        -0.1081

MULLIKEN ATOMIC CHARGES
-----------------------
   0 C :   -1.226816
   1 C :    2.357496
   2 C :   -0.792913
   3 C :   -0.833062
   4 C :   -0.154789
   5 C :   -0.708138
   6 H :    0.501754
   7 H :    0.468684
   8 H :    0.477015
   9 H :   -0.005262
  10 C :    0.834750
  11 C :   -1.318808
  12 H :    0.243439
  13 H :    0.243618
  14 C :    2.359786
  15 C :   -1.234018
  16 C :   -0.710299
  17 C :   -0.151100
  18 C :   -0.823516
  19 C :   -0.780336
  20 H :   -0.005147
  21 H :    0.475820
  22 H :    0.429449
  23 H :    0.542973
  24 H :   -0.104795
  25 H :   -0.085783
Sum of atomic charges:    0.0000000

LOEWDIN ATOMIC CHARGES
----------------------
   0 C :    0.202900
   1 C :   -0.148042
   2 C :    0.201469
   3 C :    0.194389
   4 C :    0.184008
   5 C :    0.192186
   6 H :   -0.167510
   7 H :   -0.169256
   8 H :   -0.167059
   9 H :   -0.159104
  10 C :   -0.148816
  11 C :    0.543906
  12 H :   -0.194521
  13 H :   -0.194511
  14 C :   -0.148007
  15 C :    0.202913
  16 C :    0.192207
  17 C :    0.184049
  18 C :    0.194435
  19 C :    0.201437
  20 H :   -0.159224
  21 H :   -0.167055
  22 H :   -0.169268
  23 H :   -0.167500
  24 H :   -0.167016
  25 H :   -0.167009

  Mayer bond orders larger than 0.100000
B(  0-C ,  2-C ) :  -0.6611 B(  0-C ,  3-C ) :   0.1407 B(  0-C ,  4-C ) :  -0.1755
B(  0-C ,  5-C ) :   1.3566 B(  0-C ,  6-H ) :  -0.1709 B(  0-C ,  9-H ) :   0.1165
B(  0-C , 10-C ) :   0.3755 B(  0-C , 11-C ) :   0.1156 B(  0-C , 14-C ) :  -0.1136
B(  0-C , 25-H ) :   1.8164 B(  1-C ,  2-C ) :   0.3507 B(  1-C ,  4-C ) :  -0.1310
B(  1-C ,  8-H ) :   0.1060 B(  1-C ,  9-H ) :  -0.1571 B(  1-C , 10-C ) :  -0.1687
B(  1-C , 11-C ) :  -0.2700 B(  1-C , 14-C ) :  -0.1606 B(  1-C , 15-C ) :  -0.1118
B(  1-C , 25-H ) :  -0.2256 B(  2-C ,  3-C ) :   1.3118 B(  2-C ,  4-C ) :  -0.1286
B(  2-C ,  9-H ) :   1.5609 B(  2-C , 10-C ) :   0.2858 B(  2-C , 11-C ) :   0.1143
B(  2-C , 19-C ) :   0.1606 B(  3-C ,  4-C ) :   1.2793 B(  3-C ,  5-C ) :   0.2376
B(  3-C ,  8-H ) :   0.5311 B(  3-C , 25-H ) :  -0.1127 B(  4-C ,  5-C ) :   1.1459
B(  4-C ,  7-H ) :   0.6270 B(  4-C , 10-C ) :   0.1966 B(  5-C ,  6-H ) :   0.5394
B(  9-H , 25-H ) :   0.2083 B( 10-C , 11-C ) :   0.7304 B( 10-C , 14-C ) :  -0.1699
B( 10-C , 15-C ) :   0.3756 B( 10-C , 17-C ) :   0.2022 B( 10-C , 19-C ) :   0.2921
B( 10-C , 24-H ) :  -0.1745 B( 10-C , 25-H ) :  -0.1726 B( 11-C , 12-H ) :   1.0032
B( 11-C , 13-H ) :   1.0021 B( 11-C , 14-C ) :  -0.2747 B( 11-C , 15-C ) :   0.1161
B( 11-C , 19-C ) :   0.1113 B( 14-C , 17-C ) :  -0.1193 B( 14-C , 19-C ) :   0.3559
B( 14-C , 20-H ) :  -0.1587 B( 14-C , 21-H ) :   0.1093 B( 14-C , 24-H ) :  -0.2378
B( 15-C , 16-C ) :   1.3583 B( 15-C , 17-C ) :  -0.1957 B( 15-C , 18-C ) :   0.1505
B( 15-C , 19-C ) :  -0.6671 B( 15-C , 20-H ) :   0.1242 B( 15-C , 23-H ) :  -0.1753
B( 15-C , 24-H ) :   1.8597 B( 16-C , 17-C ) :   1.1423 B( 16-C , 18-C ) :   0.2513
B( 16-C , 20-H ) :  -0.1065 B( 16-C , 23-H ) :   0.4675 B( 17-C , 18-C ) :   1.2571
B( 17-C , 19-C ) :  -0.1382 B( 17-C , 22-H ) :   0.6779 B( 18-C , 19-C ) :   1.3072
B( 18-C , 21-H ) :   0.5324 B( 18-C , 24-H ) :  -0.1059 B( 19-C , 20-H ) :   1.5559
B( 20-H , 24-H ) :   0.2171

Dispersion correction           -0.055864316
FINAL SINGLE POINT ENERGY      -540.610764622015

DIPOLE MOMENT
-------------

Method             : SCF
Type of density    : Electron Density
Multiplicity       :   1
Irrep              :   0
Energy             :  -540.5549003056559059 Eh
Relativity type    :
Basis              : AO
                                X                 Y                 Z
Electronic contribution:     -0.000787548       0.606757907      -0.000893615
Nuclear contribution   :     -0.000009105      -0.465365266       0.000012542
                        -----------------------------------------
Total Dipole Moment    :     -0.000796654       0.141392642      -0.000881072
                        -----------------------------------------
Magnitude (a.u.)       :      0.141397631
Magnitude (Debye)      :      0.359404216

Rotational constants in cm-1:             0.053104             0.013986             0.012201
Rotational constants in MHz :          1592.023360           419.285369           365.773053

                             ****ORCA TERMINATED NORMALLY****
TOTAL RUN TIME: 0 days 0 hours 8 minutes 16 seconds 996 msec
