                         Program Version 6.0.0  -   RELEASE  -
|  1> !PBE0 aug-cc-pVTZ d3 TightSCF SlowConv RIJCOSX defgrid2
|  2>
|  3> %pal
|  4> nprocs 15
|  5> end
|  6>
|  7> %scf
|  8> MaxIter 1500
|  9> end
| 10>
| 11> %maxcore 3500
| 12>
| 13> !CPCM
| 14> %cpcm smd true
| 15> SMDsolvent "WATER"
| 16> surfacetype gepol_ses
| 17> rsolv 1.40
| 18> end
| 19>
| 20> * xyz 1 1
| 21> O           1.78804094605451      3.57407180225234      1.26949194793146
| 22> N           2.67789422851893      2.80320165261973      1.24235605674492
| 23> C           3.71778316034813      2.91642565718559      0.16690169044367
| 24> C           4.00336272113038      1.49623261444906     -0.34502278805979
| 25> C           4.25766982671167      0.52191894036115      0.75815899662553
| 26> C           3.72478741138320      0.67902204568292      1.96909401147761
| 27> C           2.74959286644548      1.76027704323926      2.33487529589660
| 28> C           4.95479041346433      3.52595927403589      0.85716379705375
| 29> C           3.19004706306109      3.83072822434414     -0.92224433141749
| 30> C           3.15485574167612      2.51408579594002      3.61549894601635
| 31> C           1.33516544733407      1.17999753290778      2.47825951823241
| 32> H           4.87996183732221      1.57668875415100     -1.00999500614608
| 33> H           3.17021668262368      1.15296792938084     -0.98863220317568
| 34> H           4.90337590828949     -0.33836578770133      0.55566284253488
| 35> H           3.92357861346000     -0.03968109815672      2.77061581286109
| 36> H           4.70844618705422      4.48811332405391      1.33490279509444
| 37> H           5.40761709603610      2.84446172249759      1.59225247734595
| 38> H           5.69483505273624      3.71884274386665      0.06263108376658
| 39> H           3.04024511163629      4.86095117972371     -0.56406719285224
| 40> H           2.23933329941609      3.45894408996336     -1.33920228019874
| 41> H           3.93412607430717      3.85508376979621     -1.73438810478811
| 42> H           2.42690041381949      3.30933728300165      3.84390224235101
| 43> H           4.16701870887203      2.94082178104930      3.54605561909481
| 44> H           3.14478541414984      1.78516218068988      4.44194641182067
| 45> H           0.61276609896706      1.95074174596123      2.78900733696933
| 46> H           1.00104681299372      0.70960454278176      1.53898778688725
| 47> H           1.37065586218837      0.39927625592302      3.25432923748977
| 48> *
| 49>
| 50>                          ****END OF INPUT****

CARTESIAN COORDINATES (ANGSTROEM)
---------------------------------
  O      1.788041    3.574072    1.269492
  N      2.677894    2.803202    1.242356
  C      3.717783    2.916426    0.166902
  C      4.003363    1.496233   -0.345023
  C      4.257670    0.521919    0.758159
  C      3.724787    0.679022    1.969094
  C      2.749593    1.760277    2.334875
  C      4.954790    3.525959    0.857164
  C      3.190047    3.830728   -0.922244
  C      3.154856    2.514086    3.615499
  C      1.335165    1.179998    2.478260
  H      4.879962    1.576689   -1.009995
  H      3.170217    1.152968   -0.988632
  H      4.903376   -0.338366    0.555663
  H      3.923579   -0.039681    2.770616
  H      4.708446    4.488113    1.334903
  H      5.407617    2.844462    1.592252
  H      5.694835    3.718843    0.062631
  H      3.040245    4.860951   -0.564067
  H      2.239333    3.458944   -1.339202
  H      3.934126    3.855084   -1.734388
  H      2.426900    3.309337    3.843902
  H      4.167019    2.940822    3.546056
  H      3.144785    1.785162    4.441946
  H      0.612766    1.950742    2.789007
  H      1.001047    0.709605    1.538988
  H      1.370656    0.399276    3.254329

 Total Charge           Charge          ....    1
 Multiplicity           Mult            ....    1
 Number of Electrons    NEL             ....   84
 Basis Dimension        Dim             ....  874

ORBITAL ENERGIES
----------------

  NO   OCC          E(Eh)            E(eV)
   0   2.0000     -19.349703      -526.5322
   1   2.0000     -14.631157      -398.1340
   2   2.0000     -10.326925      -281.0099
   3   2.0000     -10.324255      -280.9373
   4   2.0000     -10.253440      -279.0103
   5   2.0000     -10.247541      -278.8498
   6   2.0000     -10.246378      -278.8181
   7   2.0000     -10.242544      -278.7138
   8   2.0000     -10.242019      -278.6995
   9   2.0000     -10.237893      -278.5872
  10   2.0000     -10.232406      -278.4379
  11   2.0000      -1.307219       -35.5712
  12   2.0000      -0.961018       -26.1506
  13   2.0000      -0.889062       -24.1926
  14   2.0000      -0.826009       -22.4769
  15   2.0000      -0.779066       -21.1995
  16   2.0000      -0.740095       -20.1390
  17   2.0000      -0.728378       -19.8202
  18   2.0000      -0.728304       -19.8182
  19   2.0000      -0.678181       -18.4543
  20   2.0000      -0.640853       -17.4385
  21   2.0000      -0.603077       -16.4106
  22   2.0000      -0.578774       -15.7492
  23   2.0000      -0.551877       -15.0173
  24   2.0000      -0.515942       -14.0395
  25   2.0000      -0.499642       -13.5960
  26   2.0000      -0.480022       -13.0621
  27   2.0000      -0.475545       -12.9402
  28   2.0000      -0.449407       -12.2290
  29   2.0000      -0.445367       -12.1191
  30   2.0000      -0.436410       -11.8753
  31   2.0000      -0.432121       -11.7586
  32   2.0000      -0.410799       -11.1784
  33   2.0000      -0.409063       -11.1312
  34   2.0000      -0.406383       -11.0582
  35   2.0000      -0.400620       -10.9014
  36   2.0000      -0.387031       -10.5317
  37   2.0000      -0.384272       -10.4566
  38   2.0000      -0.378263       -10.2931
  39   2.0000      -0.357895        -9.7388
  40   2.0000      -0.346887        -9.4393
  41   2.0000      -0.283425        -7.7124
  42   0.0000      -0.158745        -4.3197
  43   0.0000      -0.008734        -0.2377
  44   0.0000       0.000237         0.0065
  45   0.0000       0.012100         0.3293
  46   0.0000       0.013338         0.3629

MULLIKEN ATOMIC CHARGES
-----------------------
   0 O :   -0.870443
   1 N :    0.852851
   2 C :    1.505206
   3 C :   -0.329533
   4 C :   -0.649615
   5 C :   -0.713313
   6 C :    1.258907
   7 C :   -0.967660
   8 C :   -1.278161
   9 C :   -1.042320
  10 C :   -1.128644
  11 H :    0.187707
  12 H :    0.232163
  13 H :    0.771254
  14 H :    0.361665
  15 H :    0.252293
  16 H :    0.374889
  17 H :    0.114277
  18 H :    0.250074
  19 H :    0.217090
  20 H :    0.203504
  21 H :    0.190353
  22 H :    0.274811
  23 H :    0.222720
  24 H :    0.210978
  25 H :    0.245004
  26 H :    0.253942
Sum of atomic charges:    1.0000000

LOEWDIN ATOMIC CHARGES
----------------------
   0 O :    0.661611
   1 N :   -0.007230
   2 C :   -0.388875
   3 C :    0.305753
   4 C :    0.258280
   5 C :    0.237030
   6 C :   -0.407519
   7 C :    0.627318
   8 C :    0.591379
   9 C :    0.620628
  10 C :    0.605478
  11 H :   -0.109413
  12 H :   -0.104084
  13 H :   -0.139401
  14 H :   -0.133503
  15 H :   -0.122747
  16 H :   -0.152547
  17 H :   -0.118702
  18 H :   -0.143690
  19 H :   -0.134798
  20 H :   -0.127967
  21 H :   -0.136434
  22 H :   -0.146143
  23 H :   -0.125897
  24 H :   -0.149665
  25 H :   -0.128699
  26 H :   -0.130159

  Mayer bond orders larger than 0.100000
B(  0-O ,  1-N ) :   0.7206 B(  0-O ,  6-C ) :  -0.1836 B(  0-O ,  8-C ) :   0.1052
B(  0-O , 10-C ) :   0.1056 B(  1-N ,  2-C ) :   0.9061 B(  1-N ,  3-C ) :   0.1913
B(  1-N ,  6-C ) :   0.8033 B(  1-N ,  7-C ) :   0.1192 B(  1-N ,  8-C ) :  -0.1817
B(  2-C ,  3-C ) :   0.5876 B(  2-C ,  4-C ) :   0.1838 B(  2-C ,  5-C ) :   0.1226
B(  2-C ,  7-C ) :   0.5334 B(  2-C ,  8-C ) :   0.3837 B(  3-C ,  4-C ) :   0.7508
B(  3-C , 11-H ) :   0.9146 B(  3-C , 12-H ) :   0.9478 B(  3-C , 13-H ) :   0.1623
B(  4-C ,  5-C ) :   1.7456 B(  5-C ,  6-C ) :   0.8701 B(  5-C ,  9-C ) :  -0.1043
B(  5-C , 10-C ) :  -0.1032 B(  5-C , 14-H ) :   0.8756 B(  6-C ,  9-C ) :   0.6976
B(  6-C , 10-C ) :   0.5860 B(  7-C ,  8-C ) :   0.1020 B(  7-C , 15-H ) :   0.9048
B(  7-C , 16-H ) :   0.7974 B(  7-C , 17-H ) :   1.1040 B(  8-C , 18-H ) :   0.9418
B(  8-C , 19-H ) :   1.0243 B(  8-C , 20-H ) :   1.0505 B(  9-C , 10-C ) :   0.1218
B(  9-C , 21-H ) :   1.0112 B(  9-C , 22-H ) :   0.9111 B(  9-C , 23-H ) :   0.9876
B( 10-C , 24-H ) :   1.0048 B( 10-C , 25-H ) :   0.9669 B( 10-C , 26-H ) :   0.9548

Dispersion correction           -0.026893130
FINAL SINGLE POINT ENERGY      -481.934955125936

DIPOLE MOMENT
-------------

Method             : SCF
Type of density    : Electron Density
Multiplicity       :   1
Irrep              :   0
Energy             :  -481.9080619962555829 Eh
Relativity type    :
Basis              : AO
                                X                 Y                 Z
Electronic contribution:     -2.714796926       0.043779531      -0.538667750
Nuclear contribution   :      3.088927410      -0.095134284       0.454097178
                        -----------------------------------------
Total Dipole Moment    :      0.374130484      -0.051354752      -0.084570572
                        -----------------------------------------
Magnitude (a.u.)       :      0.386992392
Magnitude (Debye)      :      0.983656487

Rotational constants in cm-1:             0.051995             0.036397             0.030146
Rotational constants in MHz :          1558.765882          1091.144705           903.756196

                             ****ORCA TERMINATED NORMALLY****
TOTAL RUN TIME: 0 days 0 hours 5 minutes 13 seconds 212 msec
