                         Program Version 6.0.0  -   RELEASE  -
|  1> !r2SCAN aug-cc-pVTZ d3 TightSCF SlowConv RIJCOSX defgrid2
|  2>
|  3> %pal
|  4> nprocs 4
|  5> end
|  6>
|  7> %scf
|  8> MaxIter 1500
|  9> end
| 10>
| 11> %maxcore 3000
| 12>
| 13> !CPCM
| 14> %cpcm smd true
| 15> SMDsolvent "MeCN"
| 16> surfacetype gepol_ses
| 17> rsolv 2.19
| 18> end
| 19>
| 20> * xyz 0 1
| 21> C           2.55730705781469     -0.80272836948539      0.48102366137177
| 22> N           1.33294167009809     -1.43182229011705      0.05765766630002
| 23> C           0.34101911025700     -0.70024719108755     -0.29708224356517
| 24> N           0.31874552010949      0.68032432716300     -0.31461541058671
| 25> C          -0.89176882402801      1.43497112867922     -0.56114377570643
| 26> C          -1.99046257064471      1.26916813990179      0.49140268799889
| 27> C          -2.82765905468197      0.00715294881938      0.31516347050989
| 28> C          -2.04586918259982     -1.30153194326604      0.35164544445367
| 29> C          -0.92828974970724     -1.41500601198787     -0.69150138780777
| 30> H          -1.29203198403960     -1.06672742425397     -1.67656916039338
| 31> H          -0.63133731154972     -2.46745300434559     -0.80196281377539
| 32> H          -1.60570603630129     -1.45752170010282      1.35429556519630
| 33> H          -2.75596289666527     -2.13329897794767      0.19602041294681
| 34> H          -3.61539692476010     -0.01845840431235      1.08977014149609
| 35> H          -3.35605019663435      0.07487469231763     -0.65651142659301
| 36> H          -1.52340584005630      1.28855731350301      1.49408745577621
| 37> H          -2.66130549588890      2.14642124767486      0.44000200996492
| 38> H          -1.30052595544982      1.19153726692681     -1.56065100823810
| 39> H          -0.59215925219953      2.49412223128000     -0.60923298902630
| 40> C           1.46914234333312      1.40286101249685      0.18937626674719
| 41> C           2.73710761812345      0.60793735504758     -0.06280329082443
| 42> H           3.60249952280460      1.11378780244457      0.39882866501775
| 43> H           2.92030114355612      0.56196935074214     -1.15150232607945
| 44> H           1.52000693344937      2.38033435200841     -0.32184635939607
| 45> H           1.36269728052713      1.61326327329284      1.27517926988309
| 46> H           2.58886170713689     -0.78409197751190      1.58995809372292
| 47> H           3.40579976799671     -1.44067914787991      0.17257018060666
| 48> *
| 49>
| 50>                          ****END OF INPUT****

CARTESIAN COORDINATES (ANGSTROEM)
---------------------------------
  C      2.557307   -0.802728    0.481024
  N      1.332942   -1.431822    0.057658
  C      0.341019   -0.700247   -0.297082
  N      0.318746    0.680324   -0.314615
  C     -0.891769    1.434971   -0.561144
  C     -1.990463    1.269168    0.491403
  C     -2.827659    0.007153    0.315163
  C     -2.045869   -1.301532    0.351645
  C     -0.928290   -1.415006   -0.691501
  H     -1.292032   -1.066727   -1.676569
  H     -0.631337   -2.467453   -0.801963
  H     -1.605706   -1.457522    1.354296
  H     -2.755963   -2.133299    0.196020
  H     -3.615397   -0.018458    1.089770
  H     -3.356050    0.074875   -0.656511
  H     -1.523406    1.288557    1.494087
  H     -2.661305    2.146421    0.440002
  H     -1.300526    1.191537   -1.560651
  H     -0.592159    2.494122   -0.609233
  C      1.469142    1.402861    0.189376
  C      2.737108    0.607937   -0.062803
  H      3.602500    1.113788    0.398829
  H      2.920301    0.561969   -1.151502
  H      1.520007    2.380334   -0.321846
  H      1.362697    1.613263    1.275179
  H      2.588862   -0.784092    1.589958
  H      3.405800   -1.440679    0.172570

 Total Charge           Charge          ....    0
 Multiplicity           Mult            ....    1
 Number of Electrons    NEL             ....   84
 Basis Dimension        Dim             ....  874

ORBITAL ENERGIES
----------------

  NO   OCC          E(Eh)            E(eV)
   0   2.0000     -14.178921      -385.8280
   1   2.0000     -14.118850      -384.1934
   2   2.0000     -10.090436      -274.5747
   3   2.0000     -10.060000      -273.7465
   4   2.0000     -10.059900      -273.7438
   5   2.0000     -10.045028      -273.3391
   6   2.0000     -10.028564      -272.8911
   7   2.0000     -10.028239      -272.8823
   8   2.0000     -10.025923      -272.8192
   9   2.0000     -10.025596      -272.8103
  10   2.0000     -10.024635      -272.7842
  11   2.0000      -0.932170       -25.3656
  12   2.0000      -0.844346       -22.9758
  13   2.0000      -0.774660       -21.0796
  14   2.0000      -0.738692       -20.1008
  15   2.0000      -0.715250       -19.4629
  16   2.0000      -0.648401       -17.6439
  17   2.0000      -0.626427       -17.0459
  18   2.0000      -0.610850       -16.6221
  19   2.0000      -0.554037       -15.0761
  20   2.0000      -0.530002       -14.4221
  21   2.0000      -0.476626       -12.9697
  22   2.0000      -0.471355       -12.8262
  23   2.0000      -0.447711       -12.1828
  24   2.0000      -0.429908       -11.6984
  25   2.0000      -0.409824       -11.1519
  26   2.0000      -0.399976       -10.8839
  27   2.0000      -0.394069       -10.7232
  28   2.0000      -0.381083       -10.3698
  29   2.0000      -0.378345       -10.2953
  30   2.0000      -0.358591        -9.7578
  31   2.0000      -0.354807        -9.6548
  32   2.0000      -0.338685        -9.2161
  33   2.0000      -0.324690        -8.8353
  34   2.0000      -0.321395        -8.7456
  35   2.0000      -0.297457        -8.0942
  36   2.0000      -0.289980        -7.8908
  37   2.0000      -0.287981        -7.8364
  38   2.0000      -0.281006        -7.6466
  39   2.0000      -0.260225        -7.0811
  40   2.0000      -0.210309        -5.7228
  41   2.0000      -0.181606        -4.9418
  42   0.0000      -0.001149        -0.0313
  43   0.0000       0.013501         0.3674
  44   0.0000       0.019996         0.5441
  45   0.0000       0.020714         0.5637
  46   0.0000       0.021713         0.5908

MULLIKEN ATOMIC CHARGES
-----------------------
   0 C :   -0.366556
   1 N :   -0.876365
   2 C :    0.256935
   3 N :    0.321756
   4 C :   -0.385170
   5 C :   -0.179903
   6 C :   -0.187925
   7 C :   -0.303077
   8 C :    0.091967
   9 H :    0.105240
  10 H :    0.090430
  11 H :    0.056416
  12 H :    0.120815
  13 H :    0.213513
  14 H :    0.035120
  15 H :    0.055497
  16 H :    0.123150
  17 H :    0.158934
  18 H :    0.183330
  19 C :   -0.316795
  20 C :   -0.221290
  21 H :    0.228568
  22 H :    0.028203
  23 H :    0.205278
  24 H :    0.190403
  25 H :    0.161349
  26 H :    0.210176
Sum of atomic charges:    0.0000000

LOEWDIN ATOMIC CHARGES
----------------------
   0 C :    0.073424
   1 N :    0.388380
   2 C :   -0.410334
   3 N :    0.297681
   4 C :    0.200813
   5 C :    0.300968
   6 C :    0.273840
   7 C :    0.285808
   8 C :    0.274476
   9 H :   -0.134907
  10 H :   -0.166817
  11 H :   -0.129732
  12 H :   -0.132036
  13 H :   -0.132164
  14 H :   -0.132045
  15 H :   -0.126736
  16 H :   -0.130265
  17 H :   -0.127264
  18 H :   -0.139357
  19 C :    0.187004
  20 C :    0.279243
  21 H :   -0.126107
  22 H :   -0.130485
  23 H :   -0.130832
  24 H :   -0.107715
  25 H :   -0.146139
  26 H :   -0.158702

  Mayer bond orders larger than 0.100000
B(  0-C ,  1-N ) :   0.8833 B(  0-C , 20-C ) :   0.8587 B(  0-C , 25-H ) :   0.9601
B(  0-C , 26-H ) :   0.9647 B(  1-N ,  2-C ) :   0.5412 B(  1-N ,  7-C ) :   0.1082
B(  2-C ,  3-N ) :   0.8595 B(  2-C ,  8-C ) :   0.6538 B(  3-N ,  4-C ) :   0.9848
B(  3-N , 19-C ) :   0.6184 B(  4-C ,  5-C ) :   0.8465 B(  4-C , 17-H ) :   0.9346
B(  4-C , 18-H ) :   0.9432 B(  5-C ,  6-C ) :   0.8705 B(  5-C , 15-H ) :   1.0537
B(  5-C , 16-H ) :   0.9696 B(  6-C ,  7-C ) :   0.8279 B(  6-C , 13-H ) :   0.9177
B(  6-C , 14-H ) :   1.1000 B(  7-C ,  8-C ) :   0.9256 B(  7-C , 11-H ) :   1.0525
B(  7-C , 12-H ) :   1.0102 B(  8-C ,  9-H ) :   1.0163 B(  8-C , 10-H ) :   0.9291
B( 19-C , 20-C ) :   0.9005 B( 19-C , 23-H ) :   0.9879 B( 19-C , 24-H ) :   0.9424
B( 20-C , 21-H ) :   0.8714 B( 20-C , 22-H ) :   1.1123

Dispersion correction           -0.009247889
FINAL SINGLE POINT ENERGY      -462.007716449045

DIPOLE MOMENT
-------------

Method             : SCF
Type of density    : Electron Density
Multiplicity       :   1
Irrep              :   0
Energy             :  -461.9984685605139134 Eh
Relativity type    :
Basis              : AO
                                X                 Y                 Z
Electronic contribution:      3.037036630      -1.603662583      -1.164851325
Nuclear contribution   :     -3.701053963       3.371558610       1.131300425
                        -----------------------------------------
Total Dipole Moment    :     -0.664017333       1.767896027      -0.033550900
                        -----------------------------------------
Magnitude (a.u.)       :      1.888782953
Magnitude (Debye)      :      4.800904731

Rotational constants in cm-1:             0.068815             0.029698             0.022944
Rotational constants in MHz :          2063.025702           890.322329           687.841442

                             ****ORCA TERMINATED NORMALLY****
TOTAL RUN TIME: 0 days 0 hours 5 minutes 39 seconds 465 msec
