                         Program Version 6.0.0  -   RELEASE  -
|  1> !PBE0 def2-SV(p) Opt Freq d3 TightSCF SlowConv RIJCOSX defgrid2
|  2>
|  3> %pal
|  4> nprocs 15
|  5> end
|  6>
|  7> %scf
|  8> MaxIter 1500
|  9> end
| 10>
| 11> %maxcore 3500
| 12>
| 13>
| 14>
| 15> * xyz 0 1
| 16> C        0.000000000      0.000000000      0.000000000
| 17> C        0.000000000      1.373319056      0.090541189
| 18> C        0.000000000      2.005801373      1.358202556
| 19> C        0.000000000      1.252280933      2.509901250
| 20> C        0.000000000     -0.167564122      2.452067234
| 21> C        0.000000000     -0.807631659      1.169203086
| 22> C        0.000000000     -2.227476714      1.111369070
| 23> C        0.000000000     -2.980997154      2.263067764
| 24> C        0.000000000     -2.348514836      3.530729131
| 25> C        0.000000000     -0.975195780      3.621270320
| 26> H        0.000000000     -0.487597890      4.592806506
| 27> H        0.000000000     -2.953782701      4.432518609
| 28> H        0.000000000     -4.065491075      2.204361841
| 29> H        0.000000000     -2.710489610      0.137545264
| 30> C        0.000000000      3.543550002      1.441444104
| 31> H       -1.020692000      3.941505213      1.471906292
| 32> H        0.518060000      3.894447577      2.341217560
| 33> H        0.502632000      3.990007252      0.575912090
| 34> C        0.000000000      2.231553308     -1.188143279
| 35> H        1.020692000      2.446529534     -1.524419232
| 36> H       -0.518060000      1.723670938     -2.009591316
| 37> H       -0.502632000      3.191575797     -1.024355113
| 38> O        0.000000000      1.892133153      3.799935799
| 39> O        0.000000000     -0.645926009     -1.287004115
| 40> *
| 41>
| 42>                          ****END OF INPUT****
 Total Charge           Charge          ....    0
 Multiplicity           Mult            ....    1
 Number of Electrons    NEL             ....   98
Dispersion correction           -0.026265617
FINAL SINGLE POINT ENERGY      -612.503167430573
Dispersion correction             ... done (  0.1 sec)
Dispersion correction           -0.026337393
FINAL SINGLE POINT ENERGY      -612.568943794030
Dispersion correction             ... done (  0.1 sec)
Dispersion correction           -0.026394848
FINAL SINGLE POINT ENERGY      -612.605294163266
Dispersion correction             ... done (  0.1 sec)
FINAL SINGLE POINT ENERGY      -612.611230096523
FINAL SINGLE POINT ENERGY      -612.612342441237
FINAL SINGLE POINT ENERGY      -612.612436984791
FINAL SINGLE POINT ENERGY      -612.612476951688
FINAL SINGLE POINT ENERGY      -612.612533950195
FINAL SINGLE POINT ENERGY      -612.612637034410
FINAL SINGLE POINT ENERGY      -612.612731096142
FINAL SINGLE POINT ENERGY      -612.612882245793
FINAL SINGLE POINT ENERGY      -612.612946468764
FINAL SINGLE POINT ENERGY      -612.612958569886
FINAL SINGLE POINT ENERGY      -612.612964069468
Dispersion correction             ... done (  0.1 sec)
Dispersion correction           -0.026345025
FINAL SINGLE POINT ENERGY      -612.612964456345
Dispersion correction             ... done (  0.1 sec)
Dispersion correction           -0.026345397
FINAL SINGLE POINT ENERGY      -612.612964686036
Dispersion correction             ... done (  0.1 sec)
                    ***********************HURRAY********************

CARTESIAN COORDINATES (ANGSTROEM)
---------------------------------
  C     -0.059074   -0.027935   -0.043900
  C     -0.028907    1.457101    0.082226
  C      0.027814    2.063003    1.296256
  C      0.057808    1.270595    2.558657
  C      0.027287   -0.211484    2.454956
  C     -0.028432   -0.836400    1.202610
  C     -0.055470   -2.229558    1.118896
  C     -0.027222   -2.994924    2.281177
  C      0.027965   -2.371405    3.530914
  C      0.055200   -0.982507    3.618374
  H      0.098476   -0.467708    4.581289
  H      0.049903   -2.975965    4.442403
  H     -0.048203   -4.086755    2.215987
  H     -0.098705   -2.689157    0.128470
  C      0.061945    3.550064    1.441432
  H     -0.841166    4.012084    1.002722
  H      0.120187    3.826732    2.504111
  H      0.930211    3.980222    0.910486
  C     -0.061639    2.235353   -1.193356
  H      0.842000    2.863227   -1.297210
  H     -0.119473    1.552804   -2.053549
  H     -0.929523    2.918758   -1.218775
  O      0.106054    1.821369    3.641968
  O     -0.107035   -0.561806   -1.135658

 Multiplicity           Mult            ....    1
 Number of Electrons    NEL             ....   98
 Basis Dimension        Dim             ....  216

ORBITAL ENERGIES
----------------

  NO   OCC          E(Eh)            E(eV)
   0   2.0000     -19.214266      -522.8468
   1   2.0000     -19.214256      -522.8465
   2   2.0000     -10.332935      -281.1735
   3   2.0000     -10.332825      -281.1705
   4   2.0000     -10.269913      -279.4586
   5   2.0000     -10.269289      -279.4416
   6   2.0000     -10.263023      -279.2711
   7   2.0000     -10.262606      -279.2597
   8   2.0000     -10.259481      -279.1747
   9   2.0000     -10.259052      -279.1630
  10   2.0000     -10.256250      -279.0868
  11   2.0000     -10.256146      -279.0839
  12   2.0000     -10.234340      -278.4905
  13   2.0000     -10.234254      -278.4882
  14   2.0000      -1.075502       -29.2659
  15   2.0000      -1.073327       -29.2067
  16   2.0000      -0.905202       -24.6318
  17   2.0000      -0.867215       -23.5981
  18   2.0000      -0.802555       -21.8386
  19   2.0000      -0.789273       -21.4772
  20   2.0000      -0.763428       -20.7739
  21   2.0000      -0.714323       -19.4377
  22   2.0000      -0.687433       -18.7060
  23   2.0000      -0.642141       -17.4735
  24   2.0000      -0.624054       -16.9814
  25   2.0000      -0.593579       -16.1521
  26   2.0000      -0.563796       -15.3417
  27   2.0000      -0.528903       -14.3922
  28   2.0000      -0.507890       -13.8204
  29   2.0000      -0.487883       -13.2760
  30   2.0000      -0.478483       -13.0202
  31   2.0000      -0.464272       -12.6335
  32   2.0000      -0.461271       -12.5518
  33   2.0000      -0.459901       -12.5145
  34   2.0000      -0.437729       -11.9112
  35   2.0000      -0.435196       -11.8423
  36   2.0000      -0.431183       -11.7331
  37   2.0000      -0.424962       -11.5638
  38   2.0000      -0.410153       -11.1608
  39   2.0000      -0.408712       -11.1216
  40   2.0000      -0.395914       -10.7734
  41   2.0000      -0.387345       -10.5402
  42   2.0000      -0.380348       -10.3498
  43   2.0000      -0.375345       -10.2137
  44   2.0000      -0.295325        -8.0362
  45   2.0000      -0.292405        -7.9568
  46   2.0000      -0.285882        -7.7793
  47   2.0000      -0.280591        -7.6353
  48   2.0000      -0.275063        -7.4849
  49   0.0000      -0.110881        -3.0172
  50   0.0000      -0.042122        -1.1462
  51   0.0000      -0.021675        -0.5898
  52   0.0000       0.047914         1.3038
  53   0.0000       0.064619         1.7584

MULLIKEN ATOMIC CHARGES
-----------------------
   0 C :    0.195780
   1 C :   -0.158344
   2 C :   -0.159297
   3 C :    0.195886
   4 C :   -0.026914
   5 C :   -0.026928
   6 C :   -0.132394
   7 C :   -0.067524
   8 C :   -0.067380
   9 C :   -0.132218
  10 H :    0.110372
  11 H :    0.109899
  12 H :    0.110025
  13 H :    0.110516
  14 C :   -0.281161
  15 H :    0.144668
  16 H :    0.160779
  17 H :    0.143765
  18 C :   -0.281967
  19 H :    0.144734
  20 H :    0.160846
  21 H :    0.143698
  22 O :   -0.198411
  23 O :   -0.198433
Sum of atomic charges:    0.0000000

LOEWDIN ATOMIC CHARGES
----------------------
   0 C :    0.078494
   1 C :   -0.053822
   2 C :   -0.053848
   3 C :    0.078506
   4 C :   -0.060403
   5 C :   -0.060426
   6 C :   -0.087530
   7 C :   -0.109574
   8 C :   -0.109498
   9 C :   -0.087510
  10 H :    0.144668
  11 H :    0.135781
  12 H :    0.135803
  13 H :    0.144710
  14 C :   -0.333279
  15 H :    0.139856
  16 H :    0.143207
  17 H :    0.139372
  18 C :   -0.333283
  19 H :    0.139845
  20 H :    0.143220
  21 H :    0.139331
  22 O :   -0.136809
  23 O :   -0.136808

  Mayer bond orders larger than 0.100000
B(  0-C ,  1-C ) :   1.0055 B(  0-C ,  5-C ) :   0.9519 B(  0-C , 23-O ) :   2.1017
B(  1-C ,  2-C ) :   1.7118 B(  1-C , 18-C ) :   1.1445 B(  2-C ,  3-C ) :   1.0054
B(  2-C , 14-C ) :   1.1449 B(  3-C ,  4-C ) :   0.9518 B(  3-C , 22-O ) :   2.1018
B(  4-C ,  5-C ) :   1.3479 B(  4-C ,  9-C ) :   1.4153 B(  5-C ,  6-C ) :   1.4150
B(  6-C ,  7-C ) :   1.3585 B(  6-C , 13-H ) :   0.9561 B(  7-C ,  8-C ) :   1.3613
B(  7-C , 12-H ) :   0.9636 B(  8-C ,  9-C ) :   1.3583 B(  8-C , 11-H ) :   0.9638
B(  9-C , 10-H ) :   0.9561 B( 14-C , 15-H ) :   0.9258 B( 14-C , 16-H ) :   0.9181
B( 14-C , 17-H ) :   0.9258 B( 18-C , 19-H ) :   0.9259 B( 18-C , 20-H ) :   0.9182
B( 18-C , 21-H ) :   0.9259

Dispersion correction           -0.026345758
FINAL SINGLE POINT ENERGY      -612.612964692583

DIPOLE MOMENT
-------------

Method             : SCF
Type of density    : Electron Density
Multiplicity       :   1
Irrep              :   0
Energy             :  -612.5866189342086727 Eh
Relativity type    :
Basis              : AO
                                X                 Y                 Z
Electronic contribution:     -0.005186360      -6.481646392       3.233807353
Nuclear contribution   :      0.005720256       6.367214391      -3.176836513
                        -----------------------------------------
Total Dipole Moment    :      0.000533896      -0.114432001       0.056970840
                        -----------------------------------------
Magnitude (a.u.)       :      0.127830530
Magnitude (Debye)      :      0.324919386

VIBRATIONAL FREQUENCIES
-----------------------

Scaling factor for frequencies =  1.000000000  (already applied!)

     0:       0.00 cm**-1
     1:       0.00 cm**-1
     2:       0.00 cm**-1
     3:       0.00 cm**-1
     4:       0.00 cm**-1
     5:       0.00 cm**-1
     6:      58.22 cm**-1
     7:      71.21 cm**-1
     8:     108.38 cm**-1
     9:     121.85 cm**-1
    10:     126.91 cm**-1
    11:     170.58 cm**-1
    12:     251.57 cm**-1
    13:     285.05 cm**-1
    14:     312.21 cm**-1
    15:     346.71 cm**-1
    16:     395.99 cm**-1
    17:     424.64 cm**-1
    18:     434.73 cm**-1
    19:     440.68 cm**-1
    20:     441.35 cm**-1
    21:     516.93 cm**-1
    22:     532.25 cm**-1
    23:     629.77 cm**-1
    24:     675.64 cm**-1
    25:     696.37 cm**-1
    26:     722.52 cm**-1
    27:     731.36 cm**-1
    28:     813.96 cm**-1
    29:     825.31 cm**-1
    30:     846.16 cm**-1
    31:     937.16 cm**-1
    32:     939.00 cm**-1
    33:     986.97 cm**-1
    34:    1013.17 cm**-1
    35:    1023.56 cm**-1
    36:    1027.65 cm**-1
    37:    1041.35 cm**-1
    38:    1062.14 cm**-1
    39:    1066.00 cm**-1
    40:    1114.28 cm**-1
    41:    1136.28 cm**-1
    42:    1167.95 cm**-1
    43:    1205.35 cm**-1
    44:    1220.53 cm**-1
    45:    1286.40 cm**-1
    46:    1355.31 cm**-1
    47:    1356.91 cm**-1
    48:    1395.88 cm**-1
    49:    1405.80 cm**-1
    50:    1428.82 cm**-1
    51:    1459.29 cm**-1
    52:    1467.02 cm**-1
    53:    1471.79 cm**-1
    54:    1486.41 cm**-1
    55:    1509.63 cm**-1
    56:    1536.33 cm**-1
    57:    1671.81 cm**-1
    58:    1686.42 cm**-1
    59:    1714.40 cm**-1
    60:    1800.80 cm**-1
    61:    1802.93 cm**-1
    62:    3032.42 cm**-1
    63:    3037.22 cm**-1
    64:    3105.61 cm**-1
    65:    3114.86 cm**-1
    66:    3174.47 cm**-1
    67:    3175.93 cm**-1
    68:    3202.06 cm**-1
    69:    3216.37 cm**-1
    70:    3230.28 cm**-1
    71:    3233.04 cm**-1

IR SPECTRUM
-----------

 Mode   freq       eps      Int      T**2         TX        TY        TZ
       cm**-1   L/(mol*cm) km/mol    a.u.
----------------------------------------------------------------------------
  6:     58.22   0.001391    7.03  0.007457  ( 0.086281 -0.001670 -0.003164)
  7:     71.21   0.000000    0.00  0.000001  ( 0.001084  0.000022  0.000055)
  8:    108.38   0.000000    0.00  0.000000  ( 0.000018 -0.000013  0.000016)
  9:    121.85   0.000010    0.05  0.000026  ( 0.004985 -0.000477 -0.000883)
 10:    126.91   0.000000    0.00  0.000000  ( 0.000103 -0.000003 -0.000001)
 11:    170.58   0.000129    0.65  0.000236  (-0.015353  0.000434  0.000695)
 12:    251.57   0.000104    0.52  0.000129  (-0.000486 -0.004993 -0.010171)
 13:    285.05   0.000010    0.05  0.000011  ( 0.003277 -0.000069 -0.000112)
 14:    312.21   0.000019    0.09  0.000019  (-0.000026 -0.003844  0.001946)
 15:    346.71   0.000085    0.43  0.000076  (-0.000310 -0.003830 -0.007836)
 16:    395.99   0.000945    4.78  0.000745  ( 0.000003 -0.024432  0.012154)
 17:    424.64   0.000000    0.00  0.000000  (-0.000075 -0.000092 -0.000211)
 18:    434.73   0.005804   29.33  0.004166  ( 0.000012  0.057766 -0.028797)
 19:    440.68   0.000008    0.04  0.000006  ( 0.001223  0.001851 -0.000962)
 20:    441.35   0.000042    0.21  0.000030  (-0.005424  0.000670 -0.000177)
 21:    516.93   0.000100    0.51  0.000061  (-0.000001  0.006965 -0.003474)
 22:    532.25   0.000001    0.00  0.000000  ( 0.000044  0.000546 -0.000276)
 23:    629.77   0.000724    3.66  0.000359  ( 0.000958  0.008456  0.016928)
 24:    675.64   0.000444    2.24  0.000205  (-0.000016  0.012817 -0.006386)
 25:    696.37   0.000000    0.00  0.000000  (-0.000045 -0.000063 -0.000166)
 26:    722.52   0.000001    0.00  0.000000  (-0.000440 -0.000154  0.000094)
 27:    731.36   0.013353   67.48  0.005698  (-0.075418  0.001423  0.002824)
 28:    813.96   0.001653    8.36  0.000634  ( 0.025164 -0.000300 -0.000759)
 29:    825.31   0.000017    0.08  0.000006  ( 0.000037  0.001166  0.002221)
 30:    846.16   0.000000    0.00  0.000000  ( 0.000075  0.000261 -0.000125)
 31:    937.16   0.002023   10.22  0.000674  ( 0.000017  0.023206 -0.011627)
 32:    939.00   0.000002    0.01  0.000001  ( 0.000025  0.000810 -0.000409)
 33:    986.97   0.000326    1.65  0.000103  (-0.000432 -0.004433 -0.009125)
 34:   1013.17   0.000018    0.09  0.000005  (-0.002273 -0.000476 -0.000290)
 35:   1023.56   0.000311    1.57  0.000095  (-0.009549  0.001825  0.000475)
 36:   1027.65   0.017905   90.48  0.005437  ( 0.000173  0.065984 -0.032910)
 37:   1041.35   0.000000    0.00  0.000000  (-0.000041 -0.000142  0.000060)
 38:   1062.14   0.000001    0.00  0.000000  (-0.000011 -0.000345  0.000188)
 39:   1066.00   0.000035    0.18  0.000010  ( 0.000031 -0.002905  0.001370)
 40:   1114.28   0.000343    1.74  0.000096  (-0.000418 -0.004448 -0.008730)
 41:   1136.28   0.000049    0.25  0.000014  ( 0.000060  0.001638  0.003301)
 42:   1167.95   0.001348    6.81  0.000360  (-0.000011  0.016997 -0.008444)
 43:   1205.35   0.001434    7.25  0.000371  (-0.000018  0.017219 -0.008651)
 44:   1220.53   0.002427   12.26  0.000620  ( 0.000950  0.011155  0.022250)
 45:   1286.40   0.002086   10.54  0.000506  ( 0.000846  0.010017  0.020124)
 46:   1355.31   0.000645    3.26  0.000149  (-0.000347 -0.003918 -0.011539)
 47:   1356.91   0.070127  354.39  0.016128  (-0.000003  0.113735 -0.056499)
 48:   1395.88   0.001383    6.99  0.000309  (-0.000013  0.015646 -0.008021)
 49:   1405.80   0.002751   13.90  0.000611  (-0.000542 -0.011145 -0.022049)
 50:   1428.82   0.001070    5.41  0.000234  ( 0.000003 -0.013695  0.006795)
 51:   1459.29   0.000035    0.17  0.000007  (-0.000020 -0.002475  0.001129)
 52:   1467.02   0.012285   62.08  0.002613  ( 0.002942  0.022763  0.045677)
 53:   1471.79   0.000001    0.00  0.000000  (-0.000008 -0.000338 -0.000140)
 54:   1486.41   0.005736   28.99  0.001204  ( 0.034605 -0.001157 -0.002336)
 55:   1509.63   0.001962    9.92  0.000406  ( 0.000789  0.009003  0.017999)
 56:   1536.33   0.001732    8.75  0.000352  ( 0.000004  0.016743 -0.008454)
 57:   1671.81   0.000770    3.89  0.000144  ( 0.000011 -0.010623  0.005565)
 58:   1686.42   0.007679   38.81  0.001421  ( 0.001493  0.016923  0.033650)
 59:   1714.40   0.008371   42.30  0.001524  (-0.000005  0.034911 -0.017464)
 60:   1800.80   0.001142    5.77  0.000198  ( 0.000042 -0.012241  0.006937)
 61:   1802.93   0.069602  351.74  0.012047  (-0.004319 -0.049064 -0.098088)
 62:   3032.42   0.003896   19.69  0.000401  ( 0.000008 -0.017873  0.009031)
 63:   3037.22   0.000034    0.17  0.000003  ( 0.000217 -0.001460 -0.001133)
 64:   3105.61   0.001929    9.75  0.000194  ( 0.013912 -0.000247 -0.000431)
 65:   3114.86   0.000006    0.03  0.000001  ( 0.000344  0.000622 -0.000345)
 66:   3174.47   0.000723    3.65  0.000071  ( 0.000022 -0.007784  0.003242)
 67:   3175.93   0.000114    0.58  0.000011  (-0.000017 -0.000016 -0.003346)
 68:   3202.06   0.000520    2.63  0.000051  (-0.000276 -0.003178 -0.006364)
 69:   3216.37   0.001168    5.90  0.000113  (-0.000006  0.009505 -0.004792)
 70:   3230.28   0.000003    0.02  0.000000  (-0.000019 -0.000351  0.000409)
 71:   3233.04   0.001423    7.19  0.000137  ( 0.000008 -0.010491  0.005221)

--------------------------
THERMOCHEMISTRY AT 298.15K
--------------------------

Temperature         ...   298.15 K
Pressure            ...     1.00 atm
Total Mass          ...   186.21 AMU
Quasi RRHO          ...     True
Cut-Off Frequency   ...     1.00 cm^-1

Throughout the following assumptions are being made:
  (1) The electronic state is orbitally nondegenerate
  (2) There are no thermally accessible electronically excited states
  (3) Hindered rotations indicated by low frequency modes are not
      treated as such but are treated as vibrations and this may
      cause some error
  (4) All equations used are the standard statistical mechanics
      equations for an ideal gas
  (5) All vibrations are strictly harmonic

freq.      58.22  E(vib)   ...       0.51
freq.      71.21  E(vib)   ...       0.50
freq.     108.38  E(vib)   ...       0.45
freq.     121.85  E(vib)   ...       0.44
freq.     126.91  E(vib)   ...       0.43
freq.     170.58  E(vib)   ...       0.38
freq.     251.57  E(vib)   ...       0.30
freq.     285.05  E(vib)   ...       0.28
freq.     312.21  E(vib)   ...       0.25
freq.     346.71  E(vib)   ...       0.23
freq.     395.99  E(vib)   ...       0.20
freq.     424.64  E(vib)   ...       0.18
freq.     434.73  E(vib)   ...       0.17
freq.     440.68  E(vib)   ...       0.17
freq.     441.35  E(vib)   ...       0.17
freq.     516.93  E(vib)   ...       0.13
freq.     532.25  E(vib)   ...       0.13
freq.     629.77  E(vib)   ...       0.09
freq.     675.64  E(vib)   ...       0.08
freq.     696.37  E(vib)   ...       0.07
freq.     722.52  E(vib)   ...       0.07
freq.     731.36  E(vib)   ...       0.06
freq.     813.96  E(vib)   ...       0.05
freq.     825.31  E(vib)   ...       0.04
freq.     846.16  E(vib)   ...       0.04
freq.     937.16  E(vib)   ...       0.03
freq.     939.00  E(vib)   ...       0.03
freq.     986.97  E(vib)   ...       0.02
freq.    1013.17  E(vib)   ...       0.02
freq.    1023.56  E(vib)   ...       0.02
freq.    1027.65  E(vib)   ...       0.02
freq.    1041.35  E(vib)   ...       0.02
freq.    1062.14  E(vib)   ...       0.02
freq.    1066.00  E(vib)   ...       0.02
freq.    1114.28  E(vib)   ...       0.01
freq.    1136.28  E(vib)   ...       0.01
freq.    1167.95  E(vib)   ...       0.01
freq.    1205.35  E(vib)   ...       0.01
freq.    1220.53  E(vib)   ...       0.01
freq.    1286.40  E(vib)   ...       0.01
freq.    1355.31  E(vib)   ...       0.01
freq.    1356.91  E(vib)   ...       0.01
freq.    1395.88  E(vib)   ...       0.00
freq.    1405.80  E(vib)   ...       0.00
freq.    1428.82  E(vib)   ...       0.00
freq.    1459.29  E(vib)   ...       0.00
freq.    1467.02  E(vib)   ...       0.00
freq.    1471.79  E(vib)   ...       0.00
freq.    1486.41  E(vib)   ...       0.00
freq.    1509.63  E(vib)   ...       0.00
freq.    1536.33  E(vib)   ...       0.00
freq.    1671.81  E(vib)   ...       0.00
freq.    1686.42  E(vib)   ...       0.00
freq.    1714.40  E(vib)   ...       0.00
freq.    1800.80  E(vib)   ...       0.00
freq.    1802.93  E(vib)   ...       0.00
freq.    3032.42  E(vib)   ...       0.00
freq.    3037.22  E(vib)   ...       0.00
freq.    3105.61  E(vib)   ...       0.00
freq.    3114.86  E(vib)   ...       0.00
freq.    3174.47  E(vib)   ...       0.00
freq.    3175.93  E(vib)   ...       0.00
freq.    3202.06  E(vib)   ...       0.00
freq.    3216.37  E(vib)   ...       0.00
freq.    3230.28  E(vib)   ...       0.00
freq.    3233.04  E(vib)   ...       0.00

------------
INNER ENERGY
------------

The inner energy is: U= E(el) + E(ZPE) + E(vib) + E(rot) + E(trans)
    E(el)   - is the total energy from the electronic structure calculation
              = E(kin-el) + E(nuc-el) + E(el-el) + E(nuc-nuc)
    E(ZPE)  - the the zero temperature vibrational energy from the frequency calculation
    E(vib)  - the the finite temperature correction to E(ZPE) due to population
              of excited vibrational states
    E(rot)  - is the rotational thermal energy
    E(trans)- is the translational thermal energy

Summary of contributions to the inner energy U:
Electronic energy                ...   -612.61296469 Eh
Zero point energy                ...      0.18972565 Eh     119.05 kcal/mol
Thermal vibrational correction   ...      0.00914901 Eh       5.74 kcal/mol
Thermal rotational correction    ...      0.00141627 Eh       0.89 kcal/mol
Thermal translational correction ...      0.00141627 Eh       0.89 kcal/mol
-----------------------------------------------------------------------
Total thermal energy                   -612.41125748 Eh

Summary of corrections to the electronic energy:
(perhaps to be used in another calculation)
Total thermal correction                  0.01198156 Eh       7.52 kcal/mol
Non-thermal (ZPE) correction              0.18972565 Eh     119.05 kcal/mol
-----------------------------------------------------------------------
Total correction                          0.20170721 Eh     126.57 kcal/mol

--------
ENTHALPY
--------

The enthalpy is H = U + kB*T
                kB is Boltzmann's constant
Total thermal energy              ...   -612.41125748 Eh
Thermal Enthalpy correction       ...      0.00094421 Eh       0.59 kcal/mol
-----------------------------------------------------------------------
Total Enthalpy                    ...   -612.41031327 Eh

Note: Only C1 symmetry has been detected, increase convergence thresholds
      if your molecule has a higher symmetry. Symmetry factor of 1.0 is
      used for the rotational entropy correction.

Note: Rotational entropy computed according to Herzberg
Infrared and Raman Spectra, Chapter V,1, Van Nostrand Reinhold, 1945
Point Group:  C1, Symmetry Number:   1
Rotational constants in cm-1:     0.037375     0.021586     0.013754

Vibrational entropy computed according to the QRRHO of S. Grimme
Chem.Eur.J. 2012 18 9955 using a reference frequency of 100.0 cm-1

-------
ENTROPY
-------

The entropy contributions are T*S = T*(S(el)+S(vib)+S(rot)+S(trans))
     S(el)   - electronic entropy
     S(vib)  - vibrational entropy
     S(rot)  - rotational entropy
     S(trans)- translational entropy
The entropies will be listed as multiplied by the temperature to get
units of energy

Electronic entropy                ...      0.00000000 Eh      0.00 kcal/mol
Vibrational entropy               ...      0.01566921 Eh      9.83 kcal/mol
Rotational entropy                ...      0.01489684 Eh      9.35 kcal/mol
Translational entropy             ...      0.01975174 Eh     12.39 kcal/mol
-----------------------------------------------------------------------
Final entropy term                ...      0.05031780 Eh     31.57 kcal/mol

                             ****ORCA TERMINATED NORMALLY****
TOTAL RUN TIME: 0 days 1 hours 25 minutes 38 seconds 92 msec
