                         Program Version 6.0.0  -   RELEASE  -
|  1> !B3LYP aug-cc-pVTZ d3 TightSCF SlowConv RIJCOSX defgrid2
|  2>
|  3> %pal
|  4> nprocs 4
|  5> end
|  6>
|  7> %scf
|  8> MaxIter 1500
|  9> end
| 10>
| 11> %maxcore 3000
| 12>
| 13> !CPCM
| 14> %cpcm smd true
| 15> SMDsolvent "MeCN"
| 16> surfacetype gepol_ses
| 17> rsolv 2.19
| 18> end
| 19>
| 20> * xyz 0 1
| 21> C           1.53272654443288     -1.20734713575059      0.00001134953925
| 22> C           2.23205656040314      0.00003376074589      0.00002131461898
| 23> C           1.53261692111977      1.20735327461293      0.00000329748612
| 24> C           0.14128323670377      1.21145943804893     -0.00003641879993
| 25> C          -0.57083167401632     -0.00009614629977     -0.00005172301107
| 26> C           0.14138939561012     -1.21158285716611     -0.00002530102841
| 27> H          -0.41093083938214     -2.15464364427352     -0.00004270609566
| 28> C          -2.00037464606059     -0.00010505901986     -0.00009934791315
| 29> C          -3.21371752895327      0.00086010309321     -0.00022829616000
| 30> H          -4.28895933598145     -0.00028893327027      0.00071781614810
| 31> H          -0.41113044461304      2.15446486831874     -0.00006102811420
| 32> H           2.07747601296685      2.15600861535335      0.00001063551847
| 33> H           3.32604809148087      0.00008333329139      0.00003835626390
| 34> H           2.07768150628941     -2.15594681768433      0.00002525154760
| 35> *
| 36>
| 37>                          ****END OF INPUT****

CARTESIAN COORDINATES (ANGSTROEM)
---------------------------------
  C      1.532727   -1.207347    0.000011
  C      2.232057    0.000034    0.000021
  C      1.532617    1.207353    0.000003
  C      0.141283    1.211459   -0.000036
  C     -0.570832   -0.000096   -0.000052
  C      0.141389   -1.211583   -0.000025
  H     -0.410931   -2.154644   -0.000043
  C     -2.000375   -0.000105   -0.000099
  C     -3.213718    0.000860   -0.000228
  H     -4.288959   -0.000289    0.000718
  H     -0.411130    2.154465   -0.000061
  H      2.077476    2.156009    0.000011
  H      3.326048    0.000083    0.000038
  H      2.077682   -2.155947    0.000025

 Total Charge           Charge          ....    0
 Multiplicity           Mult            ....    1
 Number of Electrons    NEL             ....   54
 Basis Dimension        Dim             ....  506

ORBITAL ENERGIES
----------------

  NO   OCC          E(Eh)            E(eV)
   0   2.0000     -10.208150      -277.7779
   1   2.0000     -10.187392      -277.2130
   2   2.0000     -10.185892      -277.1722
   3   2.0000     -10.185892      -277.1722
   4   2.0000     -10.182224      -277.0724
   5   2.0000     -10.181424      -277.0506
   6   2.0000     -10.181207      -277.0447
   7   2.0000     -10.176847      -276.9261
   8   2.0000      -0.868106       -23.6224
   9   2.0000      -0.788263       -21.4497
  10   2.0000      -0.751895       -20.4601
  11   2.0000      -0.732178       -19.9236
  12   2.0000      -0.626928       -17.0596
  13   2.0000      -0.609769       -16.5926
  14   2.0000      -0.548333       -14.9209
  15   2.0000      -0.512728       -13.9520
  16   2.0000      -0.475327       -12.9343
  17   2.0000      -0.462095       -12.5742
  18   2.0000      -0.434338       -11.8189
  19   2.0000      -0.423176       -11.5152
  20   2.0000      -0.389587       -10.6012
  21   2.0000      -0.359546        -9.7837
  22   2.0000      -0.350186        -9.5291
  23   2.0000      -0.319725        -8.7002
  24   2.0000      -0.288618        -7.8537
  25   2.0000      -0.263943        -7.1822
  26   2.0000      -0.243489        -6.6257
  27   0.0000      -0.044326        -1.2062
  28   0.0000      -0.019983        -0.5438
  29   0.0000      -0.003680        -0.1001
  30   0.0000       0.010296         0.2802
  31   0.0000       0.013757         0.3743

MULLIKEN ATOMIC CHARGES
-----------------------
   0 C :   -0.479996
   1 C :   -0.044271
   2 C :   -0.483746
   3 C :   -1.231263
   4 C :    1.493399
   5 C :   -1.234018
   6 H :   -0.376366
   7 C :    1.318847
   8 C :   -0.437878
   9 H :    0.363422
  10 H :   -0.373208
  11 H :    0.549864
  12 H :    0.384463
  13 H :    0.550751
Sum of atomic charges:   -0.0000000

LOEWDIN ATOMIC CHARGES
----------------------
   0 C :    0.192236
   1 C :    0.189608
   2 C :    0.192241
   3 C :    0.189752
   4 C :   -0.232929
   5 C :    0.189759
   6 H :   -0.161314
   7 C :   -0.021365
   8 C :    0.399588
   9 H :   -0.279538
  10 H :   -0.161313
  11 H :   -0.165502
  12 H :   -0.165721
  13 H :   -0.165503

  Mayer bond orders larger than 0.100000
B(  0-C ,  1-C ) :   1.1199 B(  0-C ,  2-C ) :   0.1071 B(  0-C ,  3-C ) :   0.1915
B(  0-C ,  4-C ) :   0.4874 B(  0-C ,  5-C ) :   1.2488 B(  0-C ,  6-H ) :  -0.1638
B(  0-C ,  7-C ) :  -0.1812 B(  0-C ,  8-C ) :  -0.1648 B(  0-C , 12-H ) :  -0.1194
B(  0-C , 13-H ) :   0.5376 B(  1-C ,  2-C ) :   1.1198 B(  1-C ,  3-C ) :  -0.3371
B(  1-C ,  4-C ) :  -0.3817 B(  1-C ,  5-C ) :  -0.3387 B(  1-C ,  6-H ) :  -0.1136
B(  1-C ,  7-C ) :   0.4307 B(  1-C ,  8-C ) :   0.2649 B(  1-C , 10-H ) :  -0.1141
B(  1-C , 12-H ) :   0.7882 B(  2-C ,  3-C ) :   1.2528 B(  2-C ,  4-C ) :   0.4855
B(  2-C ,  5-C ) :   0.1933 B(  2-C ,  7-C ) :  -0.1842 B(  2-C ,  8-C ) :  -0.1641
B(  2-C , 10-H ) :  -0.1601 B(  2-C , 11-H ) :   0.5374 B(  2-C , 12-H ) :  -0.1189
B(  3-C ,  4-C ) :   0.2918 B(  3-C ,  5-C ) :  -0.5048 B(  3-C ,  6-H ) :   0.3819
B(  3-C ,  7-C ) :   0.3590 B(  3-C ,  8-C ) :  -0.2909 B(  3-C , 10-H ) :   2.3964
B(  3-C , 11-H ) :  -0.2403 B(  4-C ,  5-C ) :   0.2952 B(  4-C ,  7-C ) :  -0.2917
B(  4-C ,  8-C ) :   1.0775 B(  4-C ,  9-H ) :   0.1295 B(  5-C ,  6-H ) :   2.4008
B(  5-C ,  7-C ) :   0.3592 B(  5-C ,  8-C ) :  -0.2946 B(  5-C , 10-H ) :   0.3790
B(  5-C , 13-H ) :  -0.2417 B(  6-H ,  7-C ) :  -0.4449 B(  6-H ,  8-C ) :  -0.7275
B(  6-H , 10-H ) :   0.6141 B(  6-H , 11-H ) :  -0.1339 B(  6-H , 13-H ) :  -0.1302
B(  7-C ,  8-C ) :   2.6500 B(  7-C ,  9-H ) :  -0.1081 B(  7-C , 10-H ) :  -0.4405
B(  7-C , 11-H ) :   0.1376 B(  7-C , 12-H ) :  -0.1046 B(  7-C , 13-H ) :   0.1410
B(  8-C ,  9-H ) :   1.0239 B(  8-C , 10-H ) :  -0.7248 B(  8-C , 11-H ) :   0.2246
B(  8-C , 13-H ) :   0.2254 B( 10-H , 11-H ) :  -0.1290 B( 10-H , 13-H ) :  -0.1351

Dispersion correction           -0.024503312
FINAL SINGLE POINT ENERGY      -308.344548729812

DIPOLE MOMENT
-------------

Method             : SCF
Type of density    : Electron Density
Multiplicity       :   1
Irrep              :   0
Energy             :  -308.3200454173320395 Eh
Relativity type    :
Basis              : AO
                                X                 Y                 Z
Electronic contribution:     -1.770645144       0.000062409      -0.000472278
Nuclear contribution   :      2.227582411      -0.000665596       0.000875711
                        -----------------------------------------
Total Dipole Moment    :      0.456937267      -0.000603187       0.000403432
                        -----------------------------------------
Magnitude (a.u.)       :      0.456937843
Magnitude (Debye)      :      1.161443696

Rotational constants in cm-1:             0.189401             0.050851             0.040088
Rotational constants in MHz :          5678.091161          1524.476874          1201.810057

                             ****ORCA TERMINATED NORMALLY****
TOTAL RUN TIME: 0 days 0 hours 2 minutes 58 seconds 299 msec
