                         Program Version 6.0.0  -   RELEASE  -
|  1> !r2SCANh aug-cc-pVTZ d3 TightSCF SlowConv RIJCOSX defgrid2
|  2>
|  3> %pal
|  4> nprocs 4
|  5> end
|  6>
|  7> %scf
|  8> MaxIter 1500
|  9> end
| 10>
| 11> %maxcore 3000
| 12>
| 13> !CPCM
| 14> %cpcm smd true
| 15> SMDsolvent "MeCN"
| 16> surfacetype gepol_ses
| 17> rsolv 2.19
| 18> end
| 19>
| 20> * xyz 1 2
| 21> C           0.76309641907195     -1.16293983433003      0.23718381873604
| 22> C          -0.76304171601446     -1.16296952747842     -0.23724555362178
| 23> H          -1.27590174641137     -2.02340834769785      0.21800270990120
| 24> H          -0.77362876837767     -1.19896716686552     -1.34057732579590
| 25> O          -1.30210126379069     -0.00003866110666      0.26158364977248
| 26> C          -0.76310446688411      1.16294442598402     -0.23720418219692
| 27> C           0.76303513090937      1.16298601934474      0.23722214632434
| 28> H           1.27589626879449      2.02341629109980     -0.21804063751063
| 29> H           0.77362940968102      1.19899371952034      1.34055360051981
| 30> O           1.30210147370824      0.00004813344550     -0.26159746316919
| 31> H          -1.27602354622748      2.02334978586835      0.21803685187514
| 32> H          -0.77366667806753      1.19894468683083     -1.34053597047731
| 33> H           1.27601869897724     -2.02334025573413     -0.21806265273971
| 34> H           0.77366218463101     -1.19894196888098      1.34051380838241
| 35> *
| 36>
| 37>                          ****END OF INPUT****

CARTESIAN COORDINATES (ANGSTROEM)
---------------------------------
  C      0.763096   -1.162940    0.237184
  C     -0.763042   -1.162970   -0.237246
  H     -1.275902   -2.023408    0.218003
  H     -0.773629   -1.198967   -1.340577
  O     -1.302101   -0.000039    0.261584
  C     -0.763104    1.162944   -0.237204
  C      0.763035    1.162986    0.237222
  H      1.275896    2.023416   -0.218041
  H      0.773629    1.198994    1.340554
  O      1.302101    0.000048   -0.261597
  H     -1.276024    2.023350    0.218037
  H     -0.773667    1.198945   -1.340536
  H      1.276019   -2.023340   -0.218063
  H      0.773662   -1.198942    1.340514

 Total Charge           Charge          ....    1
 Multiplicity           Mult            ....    2
 Number of Electrons    NEL             ....   47
 Basis Dimension        Dim             ....  460

ORBITAL ENERGIES
----------------
                 SPIN UP ORBITALS
  NO   OCC          E(Eh)            E(eV)
   0   1.0000     -19.232754      -523.3498
   1   1.0000     -19.232753      -523.3498
   2   1.0000     -10.260680      -279.2073
   3   1.0000     -10.260679      -279.2073
   4   1.0000     -10.260564      -279.2041
   5   1.0000     -10.260560      -279.2040
   6   1.0000      -1.172491       -31.9051
   7   1.0000      -1.134718       -30.8772
   8   1.0000      -0.838564       -22.8185
   9   1.0000      -0.735898       -20.0248
  10   1.0000      -0.733299       -19.9541
  11   1.0000      -0.625228       -17.0133
  12   1.0000      -0.568732       -15.4760
  13   1.0000      -0.551438       -15.0054
  14   1.0000      -0.524595       -14.2749
  15   1.0000      -0.519418       -14.1341
  16   1.0000      -0.514942       -14.0123
  17   1.0000      -0.451937       -12.2978
  18   1.0000      -0.427079       -11.6214
  19   1.0000      -0.415883       -11.3167
  20   1.0000      -0.396949       -10.8015
  21   1.0000      -0.362469        -9.8633
  22   1.0000      -0.354484        -9.6460
  23   1.0000      -0.295883        -8.0514
  24   0.0000       0.013189         0.3589
  25   0.0000       0.024357         0.6628
  26   0.0000       0.028812         0.7840
  27   0.0000       0.029725         0.8089
  28   0.0000       0.034979         0.9518

                 SPIN DOWN ORBITALS
  NO   OCC          E(Eh)            E(eV)
   0   1.0000     -19.222037      -523.0582
   1   1.0000     -19.222036      -523.0582
   2   1.0000     -10.258779      -279.1556
   3   1.0000     -10.258778      -279.1555
   4   1.0000     -10.258676      -279.1528
   5   1.0000     -10.258671      -279.1526
   6   1.0000      -1.156858       -31.4797
   7   1.0000      -1.116572       -30.3835
   8   1.0000      -0.830802       -22.6073
   9   1.0000      -0.731552       -19.9065
  10   1.0000      -0.715639       -19.4735
  11   1.0000      -0.617329       -16.7984
  12   1.0000      -0.553192       -15.0531
  13   1.0000      -0.542405       -14.7596
  14   1.0000      -0.520499       -14.1635
  15   1.0000      -0.514608       -14.0032
  16   1.0000      -0.498299       -13.5594
  17   1.0000      -0.414331       -11.2745
  18   1.0000      -0.414114       -11.2686
  19   1.0000      -0.412073       -11.2131
  20   1.0000      -0.385790       -10.4979
  21   1.0000      -0.347790        -9.4639
  22   1.0000      -0.335048        -9.1171
  23   0.0000      -0.221830        -6.0363
  24   0.0000       0.014879         0.4049
  25   0.0000       0.025392         0.6910
  26   0.0000       0.030270         0.8237
  27   0.0000       0.030438         0.8283

MULLIKEN ATOMIC CHARGES AND SPIN POPULATIONS
--------------------------------------------
   0 C :   -0.102124    0.063623
   1 C :   -0.102060    0.063630
   2 H :    0.302385    0.014754
   3 H :    0.241627    0.011863
   4 O :   -0.383901    0.319516
   5 C :   -0.102079    0.063601
   6 C :   -0.102107    0.063612
   7 H :    0.302345    0.014765
   8 H :    0.241677    0.011866
   9 O :   -0.383899    0.319512
  10 H :    0.302368    0.014763
  11 H :    0.241692    0.011869
  12 H :    0.302393    0.014766
  13 H :    0.241682    0.011860
Sum of atomic charges         :    1.0000000

LOEWDIN ATOMIC CHARGES AND SPIN POPULATIONS
-------------------------------------------
   0 C :    0.142234    0.094810
   1 C :    0.142225    0.094810
   2 H :   -0.111322    0.014052
   3 H :   -0.114339    0.013376
   4 O :    0.666869    0.255525
   5 C :    0.142231    0.094810
   6 C :    0.142229    0.094810
   7 H :   -0.111324    0.014051
   8 H :   -0.114339    0.013376
   9 O :    0.666868    0.255527
  10 H :   -0.111321    0.014052
  11 H :   -0.114343    0.013375
  12 H :   -0.111322    0.014052
  13 H :   -0.114345    0.013375

  Mayer bond orders larger than 0.100000
B(  0-C ,  1-C ) :   0.8113 B(  0-C ,  6-C ) :   0.1177 B(  0-C ,  9-O ) :   0.9169
B(  0-C , 12-H ) :   0.8869 B(  0-C , 13-H ) :   0.9218 B(  1-C ,  2-H ) :   0.8869
B(  1-C ,  3-H ) :   0.9218 B(  1-C ,  4-O ) :   0.9170 B(  1-C ,  5-C ) :   0.1177
B(  4-O ,  5-C ) :   0.9170 B(  4-O ,  9-O ) :   0.1308 B(  5-C ,  6-C ) :   0.8113
B(  5-C , 10-H ) :   0.8869 B(  5-C , 11-H ) :   0.9218 B(  6-C ,  7-H ) :   0.8870
B(  6-C ,  8-H ) :   0.9218 B(  6-C ,  9-O ) :   0.9170

Dispersion correction           -0.002997629
FINAL SINGLE POINT ENERGY      -307.375788291335

DIPOLE MOMENT
-------------

Method             : SCF
Type of density    : Electron Density
Multiplicity       :   2
Irrep              :   0
Energy             :  -307.3727906620882209 Eh
Relativity type    :
Basis              : AO
                                X                 Y                 Z
Electronic contribution:     -0.000013713      -0.000004170       0.000022667
Nuclear contribution   :      0.000002668       0.000005347      -0.000029732
                        -----------------------------------------
Total Dipole Moment    :     -0.000011045       0.000001177      -0.000007065
                        -----------------------------------------
Magnitude (a.u.)       :      0.000013164
Magnitude (Debye)      :      0.000033459

Rotational constants in cm-1:             0.169249             0.162821             0.094443
Rotational constants in MHz :          5073.947219          4881.263290          2831.336454

                             ****ORCA TERMINATED NORMALLY****
TOTAL RUN TIME: 0 days 0 hours 3 minutes 26 seconds 265 msec
