                         Program Version 6.0.0  -   RELEASE  -
|  1> !TPSSh aug-cc-pVTZ d3 TightSCF SlowConv RIJCOSX defgrid2
|  2>
|  3> %pal
|  4> nprocs 15
|  5> end
|  6>
|  7> %scf
|  8> MaxIter 1500
|  9> end
| 10>
| 11> %maxcore 3500
| 12>
| 13> !CPCM
| 14> %cpcm smd true
| 15> SMDsolvent "WATER"
| 16> surfacetype gepol_ses
| 17> rsolv 1.40
| 18> end
| 19>
| 20> * xyz 0 1
| 21> C          -0.04022979995253      0.10934243063256     -0.04781414840262
| 22> C          -1.20598933737927     -0.38579508968121      0.72535064655671
| 23> C           1.16762735129884      0.48320931067021      0.71660533841080
| 24> H          -2.08977721092752     -0.65804131143695      0.14047110955844
| 25> H           2.00933821779047      0.84338404791193      0.11644510533465
| 26> C          -1.15729609336593     -0.48547962221092      2.06219653568719
| 27> C           1.23994061348118      0.39162604465106      2.05974182181754
| 28> H          -1.99856910405152     -0.84630774685815      2.66159543961282
| 29> C           0.05550809013202     -0.10787998980524      2.82546584658989
| 30> O           0.08824138271929     -0.20066312730217      4.03611457894647
| 31> O          -0.08237810438593      0.20201294968745     -1.25889477385297
| 32> C           2.43938990003151      0.75910371183851      2.86443148480113
| 33> H           2.18564348705276      1.54409943819251      3.59804132816950
| 34> H           2.78911766568061     -0.10695868663051      3.45298570242047
| 35> H           3.25938092587604      1.11528426934092      2.22204567334997
| 36> *
| 37>
| 38>                          ****END OF INPUT****

CARTESIAN COORDINATES (ANGSTROEM)
---------------------------------
  C     -0.040230    0.109342   -0.047814
  C     -1.205989   -0.385795    0.725351
  C      1.167627    0.483209    0.716605
  H     -2.089777   -0.658041    0.140471
  H      2.009338    0.843384    0.116445
  C     -1.157296   -0.485480    2.062197
  C      1.239941    0.391626    2.059742
  H     -1.998569   -0.846308    2.661595
  C      0.055508   -0.107880    2.825466
  O      0.088241   -0.200663    4.036115
  O     -0.082378    0.202013   -1.258895
  C      2.439390    0.759104    2.864431
  H      2.185643    1.544099    3.598041
  H      2.789118   -0.106959    3.452986
  H      3.259381    1.115284    2.222046

 Total Charge           Charge          ....    0
 Multiplicity           Mult            ....    1
 Number of Electrons    NEL             ....   64
 Basis Dimension        Dim             ....  552

ORBITAL ENERGIES
----------------

  NO   OCC          E(Eh)            E(eV)
   0   2.0000     -19.071050      -518.9497
   1   2.0000     -19.068518      -518.8807
   2   2.0000     -10.219601      -278.0895
   3   2.0000     -10.218231      -278.0522
   4   2.0000     -10.154113      -276.3074
   5   2.0000     -10.146172      -276.0914
   6   2.0000     -10.145416      -276.0708
   7   2.0000     -10.137989      -275.8687
   8   2.0000     -10.115728      -275.2630
   9   2.0000      -1.047212       -28.4961
  10   2.0000      -1.044056       -28.4102
  11   2.0000      -0.835213       -22.7273
  12   2.0000      -0.776947       -21.1418
  13   2.0000      -0.702298       -19.1105
  14   2.0000      -0.666147       -18.1268
  15   2.0000      -0.600615       -16.3436
  16   2.0000      -0.565388       -15.3850
  17   2.0000      -0.497581       -13.5399
  18   2.0000      -0.483691       -13.1619
  19   2.0000      -0.459641       -12.5075
  20   2.0000      -0.436339       -11.8734
  21   2.0000      -0.425151       -11.5689
  22   2.0000      -0.415666       -11.3109
  23   2.0000      -0.406115       -11.0510
  24   2.0000      -0.401655       -10.9296
  25   2.0000      -0.384869       -10.4728
  26   2.0000      -0.377263       -10.2659
  27   2.0000      -0.363626        -9.8948
  28   2.0000      -0.294751        -8.0206
  29   2.0000      -0.270390        -7.3577
  30   2.0000      -0.268760        -7.3133
  31   2.0000      -0.256036        -6.9671
  32   0.0000      -0.141004        -3.8369
  33   0.0000      -0.032073        -0.8728
  34   0.0000      -0.009034        -0.2458
  35   0.0000      -0.000668        -0.0182
  36   0.0000       0.011287         0.3071

MULLIKEN ATOMIC CHARGES
-----------------------
   0 C :    1.162978
   1 C :   -0.393734
   2 C :   -0.538476
   3 H :    0.341908
   4 H :    0.196594
   5 C :   -0.410641
   6 C :    0.468317
   7 H :    0.375533
   8 C :    0.883686
   9 O :   -1.083276
  10 O :   -1.040889
  11 C :   -0.306343
  12 H :    0.124066
  13 H :    0.123606
  14 H :    0.096672
Sum of atomic charges:    0.0000000

LOEWDIN ATOMIC CHARGES
----------------------
   0 C :   -0.581240
   1 C :    0.225836
   2 C :    0.237312
   3 H :   -0.165928
   4 H :   -0.164934
   5 C :    0.229585
   6 C :   -0.113370
   7 H :   -0.166472
   8 C :   -0.549869
   9 O :    0.490251
  10 O :    0.457927
  11 C :    0.568843
  12 H :   -0.154856
  13 H :   -0.154815
  14 H :   -0.158271

  Mayer bond orders larger than 0.100000
B(  0-C ,  1-C ) :   0.9322 B(  0-C ,  2-C ) :   0.8965 B(  0-C , 10-O ) :   0.2921
B(  1-C ,  2-C ) :   0.2095 B(  1-C ,  3-H ) :   0.5639 B(  1-C ,  5-C ) :   1.8819
B(  1-C , 10-O ) :   0.1531 B(  2-C ,  4-H ) :   0.7228 B(  2-C ,  5-C ) :  -0.1410
B(  2-C ,  6-C ) :   1.3555 B(  2-C ,  8-C ) :   0.1331 B(  2-C , 10-O ) :   0.1562
B(  4-H ,  6-C ) :   0.1291 B(  4-H , 10-O ) :   0.1151 B(  5-C ,  6-C ) :   0.1846
B(  5-C ,  7-H ) :   0.5028 B(  5-C ,  8-C ) :   0.9981 B(  5-C ,  9-O ) :   0.1853
B(  6-C ,  8-C ) :   0.9399 B(  6-C ,  9-O ) :   0.1032 B(  6-C , 10-O ) :   0.1517
B(  6-C , 11-C ) :   0.7848 B(  8-C ,  9-O ) :   0.2671 B(  8-C , 11-C ) :   0.1681
B( 11-C , 12-H ) :   0.9742 B( 11-C , 13-H ) :   0.9748 B( 11-C , 14-H ) :   0.9946

Dispersion correction           -0.017827342
FINAL SINGLE POINT ENERGY      -420.970765592262

DIPOLE MOMENT
-------------

Method             : SCF
Type of density    : Electron Density
Multiplicity       :   1
Irrep              :   0
Energy             :  -420.9529382507138848 Eh
Relativity type    :
Basis              : AO
                                X                 Y                 Z
Electronic contribution:     -3.859971867      -1.209114563      -2.269604196
Nuclear contribution   :      4.092101562       1.259935150       2.614157328
                        -----------------------------------------
Total Dipole Moment    :      0.232129695       0.050820587       0.344553132
                        -----------------------------------------
Magnitude (a.u.)       :      0.418549625
Magnitude (Debye)      :      1.063868599

Rotational constants in cm-1:             0.099449             0.047883             0.032517
Rotational constants in MHz :          2981.414348          1435.498503           974.822832

                             ****ORCA TERMINATED NORMALLY****
TOTAL RUN TIME: 0 days 0 hours 2 minutes 47 seconds 755 msec
