                         Program Version 6.0.0  -   RELEASE  -
|  1> !PBE0 aug-cc-pVTZ d3 TightSCF SlowConv RIJCOSX defgrid2
|  2>
|  3> %pal
|  4> nprocs 4
|  5> end
|  6>
|  7> %scf
|  8> MaxIter 1500
|  9> end
| 10>
| 11> %maxcore 3000
| 12>
| 13> !CPCM
| 14> %cpcm smd true
| 15> SMDsolvent "MeCN"
| 16> surfacetype gepol_ses
| 17> rsolv 2.19
| 18> end
| 19>
| 20> * xyz 0 1
| 21> C          -2.28943628984998     -1.08285381421457     -0.27215993229653
| 22> C          -1.22862023156136      0.01586077259453     -0.25601491731078
| 23> N           0.00661098110282     -0.50212633579045      0.31354199000874
| 24> H           0.04448546198884     -0.34374633262279      1.31992834627211
| 25> C           1.26761402703144     -0.16050590389698     -0.31641071653716
| 26> C           1.61227695016871      1.33248737268488     -0.33804198779464
| 27> H           1.67848646199772      1.73094232260326      0.69159025810039
| 28> H           0.85105477369420      1.91805645848033     -0.88142696576002
| 29> H           2.58358136031093      1.51068050094161     -0.83364819199688
| 30> C           2.37625730002657     -0.96447955561106      0.35107581249572
| 31> H           2.13332648923035     -2.03958118968627      0.33268241243102
| 32> H           3.34622361909672     -0.80670159196001     -0.15062911203137
| 33> H           2.49537611972548     -0.65946405577216      1.40819901441394
| 34> H           1.19295505843491     -0.50230950030642     -1.36701945226968
| 35> C          -1.75092025319689      1.26393539098600      0.45804448286514
| 36> H          -1.01077279835727      2.08120251713453      0.44660788818213
| 37> H          -1.98089959571268      1.02983730439430      1.51486395854639
| 38> H          -2.68129026142747      1.63712259892000     -0.00568309259664
| 39> H          -1.00714489185693      0.28572149795558     -1.30571438011138
| 40> H          -1.91525958204469     -1.96452646149950     -0.81800405837007
| 41> H          -2.52324219300596     -1.40342780976556      0.75957368070162
| 42> H          -3.22778530579547     -0.74080268556924     -0.74485933694205
| 43> *
| 44>
| 45>                          ****END OF INPUT****

CARTESIAN COORDINATES (ANGSTROEM)
---------------------------------
  C     -2.289436   -1.082854   -0.272160
  C     -1.228620    0.015861   -0.256015
  N      0.006611   -0.502126    0.313542
  H      0.044485   -0.343746    1.319928
  C      1.267614   -0.160506   -0.316411
  C      1.612277    1.332487   -0.338042
  H      1.678486    1.730942    0.691590
  H      0.851055    1.918056   -0.881427
  H      2.583581    1.510681   -0.833648
  C      2.376257   -0.964480    0.351076
  H      2.133326   -2.039581    0.332682
  H      3.346224   -0.806702   -0.150629
  H      2.495376   -0.659464    1.408199
  H      1.192955   -0.502310   -1.367019
  C     -1.750920    1.263935    0.458044
  H     -1.010773    2.081203    0.446608
  H     -1.980900    1.029837    1.514864
  H     -2.681290    1.637123   -0.005683
  H     -1.007145    0.285721   -1.305714
  H     -1.915260   -1.964526   -0.818004
  H     -2.523242   -1.403428    0.759574
  H     -3.227785   -0.740803   -0.744859

 Total Charge           Charge          ....    0
 Multiplicity           Mult            ....    1
 Number of Electrons    NEL             ....   58
 Basis Dimension        Dim             ....  667

ORBITAL ENERGIES
----------------

  NO   OCC          E(Eh)            E(eV)
   0   2.0000     -14.356184      -390.6516
   1   2.0000     -10.245294      -278.7886
   2   2.0000     -10.244796      -278.7751
   3   2.0000     -10.204124      -277.6683
   4   2.0000     -10.203770      -277.6587
   5   2.0000     -10.202198      -277.6159
   6   2.0000     -10.201617      -277.6001
   7   2.0000      -0.928274       -25.2596
   8   2.0000      -0.803740       -21.8709
   9   2.0000      -0.741210       -20.1693
  10   2.0000      -0.697624       -18.9833
  11   2.0000      -0.690916       -18.8008
  12   2.0000      -0.595388       -16.2013
  13   2.0000      -0.590446       -16.0669
  14   2.0000      -0.485968       -13.2239
  15   2.0000      -0.475053       -12.9269
  16   2.0000      -0.443241       -12.0612
  17   2.0000      -0.428837       -11.6692
  18   2.0000      -0.426841       -11.6149
  19   2.0000      -0.404572       -11.0090
  20   2.0000      -0.392124       -10.6702
  21   2.0000      -0.384541       -10.4639
  22   2.0000      -0.381513       -10.3815
  23   2.0000      -0.356486        -9.7005
  24   2.0000      -0.353736        -9.6256
  25   2.0000      -0.334507        -9.1024
  26   2.0000      -0.331217        -9.0129
  27   2.0000      -0.327056        -8.8996
  28   2.0000      -0.223139        -6.0719
  29   0.0000       0.003465         0.0943
  30   0.0000       0.015981         0.4349
  31   0.0000       0.016444         0.4475
  32   0.0000       0.018524         0.5041
  33   0.0000       0.035568         0.9679

MULLIKEN ATOMIC CHARGES
-----------------------
   0 C :   -1.165735
   1 C :    0.747622
   2 N :   -0.527010
   3 H :   -0.047154
   4 C :    0.678380
   5 C :   -0.835266
   6 H :    0.268492
   7 H :    0.268228
   8 H :    0.146383
   9 C :   -1.109099
  10 H :    0.208260
  11 H :    0.233563
  12 H :    0.219298
  13 H :    0.282473
  14 C :   -0.941448
  15 H :    0.247448
  16 H :    0.208526
  17 H :    0.212579
  18 H :    0.251631
  19 H :    0.202191
  20 H :    0.215586
  21 H :    0.235051
Sum of atomic charges:   -0.0000000

LOEWDIN ATOMIC CHARGES
----------------------
   0 C :    0.565573
   1 C :   -0.203128
   2 N :    0.572571
   3 H :   -0.280999
   4 C :   -0.207441
   5 C :    0.573350
   6 H :   -0.149075
   7 H :   -0.171571
   8 H :   -0.155327
   9 C :    0.562744
  10 H :   -0.161078
  11 H :   -0.155819
  12 H :   -0.152358
  13 H :   -0.124666
  14 C :    0.575818
  15 H :   -0.174360
  16 H :   -0.151003
  17 H :   -0.153355
  18 H :   -0.129925
  19 H :   -0.164257
  20 H :   -0.157739
  21 H :   -0.157953

  Mayer bond orders larger than 0.100000
B(  0-C ,  1-C ) :   0.5028 B(  0-C ,  2-N ) :   0.1341 B(  0-C , 14-C ) :   0.1493
B(  0-C , 19-H ) :   1.0219 B(  0-C , 20-H ) :   1.0022 B(  0-C , 21-H ) :   0.9695
B(  1-C ,  2-N ) :   0.8217 B(  1-C ,  4-C ) :   0.1091 B(  1-C , 14-C ) :   0.7004
B(  1-C , 18-H ) :   0.9205 B(  2-N ,  3-H ) :   0.9718 B(  2-N ,  4-C ) :   0.7644
B(  2-N ,  9-C ) :   0.1221 B(  2-N , 13-H ) :  -0.1164 B(  4-C ,  5-C ) :   0.7789
B(  4-C ,  9-C ) :   0.5666 B(  4-C , 13-H ) :   0.9147 B(  5-C ,  6-H ) :   0.9164
B(  5-C ,  7-H ) :   0.9091 B(  5-C ,  8-H ) :   1.0261 B(  5-C ,  9-C ) :   0.1516
B(  9-C , 10-H ) :   0.9961 B(  9-C , 11-H ) :   0.9923 B(  9-C , 12-H ) :   0.9861
B( 14-C , 15-H ) :   0.9313 B( 14-C , 16-H ) :   0.9873 B( 14-C , 17-H ) :   0.9758

Dispersion correction           -0.015879493
FINAL SINGLE POINT ENERGY      -292.187032139480

DIPOLE MOMENT
-------------

Method             : SCF
Type of density    : Electron Density
Multiplicity       :   1
Irrep              :   0
Energy             :  -292.1711526465732049 Eh
Relativity type    :
Basis              : AO
                                X                 Y                 Z
Electronic contribution:      0.076120107      -1.173690617      -0.290762758
Nuclear contribution   :     -0.008091156       1.682730653       0.307275943
                        -----------------------------------------
Total Dipole Moment    :      0.068028951       0.509040036       0.016513185
                        -----------------------------------------
Magnitude (a.u.)       :      0.513831083
Magnitude (Debye)      :      1.306054818

Rotational constants in cm-1:             0.137775             0.051485             0.041834
Rotational constants in MHz :          4130.376208          1543.470169          1254.154944

                             ****ORCA TERMINATED NORMALLY****
TOTAL RUN TIME: 0 days 0 hours 5 minutes 0 seconds 782 msec
