                         Program Version 6.0.0  -   RELEASE  -
|  1> !TPSSh aug-cc-pVTZ d3 TightSCF SlowConv RIJCOSX defgrid2
|  2>
|  3> %pal
|  4> nprocs 4
|  5> end
|  6>
|  7> %scf
|  8> MaxIter 1500
|  9> end
| 10>
| 11> %maxcore 3000
| 12>
| 13> !CPCM
| 14> %cpcm smd true
| 15> SMDsolvent "MeCN"
| 16> surfacetype gepol_ses
| 17> rsolv 2.19
| 18> end
| 19>
| 20> * xyz 0 1
| 21> C          -1.05292788857862     -0.90195039312492     -0.00079244620406
| 22> C           0.25383306266426     -1.38568004993578     -0.00080152214741
| 23> C           0.54028267273191     -2.86138571234637      0.00203288995712
| 24> H          -0.38883857252285     -3.45325509542062     -0.03604059678385
| 25> H           1.09291811063176     -3.16010644297053      0.91112317693211
| 26> H           1.16170282070714     -3.15090864321875     -0.86421399390079
| 27> C           1.30789207458922     -0.46067464080260     -0.00180567347016
| 28> C           1.07324062808844      0.91294695875315     -0.00214657152903
| 29> C           2.20817617786651      1.89865124490654      0.00209849597546
| 30> H           3.18449974454796      1.39049576009947     -0.05807100437114
| 31> H           2.13663406413115      2.59705801641470     -0.85077030664783
| 32> H           2.20331535520643      2.51020555090965      0.92262417706601
| 33> C          -0.25483018407266      1.36349671392215     -0.00225647131416
| 34> C          -1.32705255805093      0.47346516287692     -0.00103317270303
| 35> C          -2.74855528335392      0.96238121268857      0.00245367553351
| 36> H          -3.31064008145775      0.56663508720282     -0.86228812948984
| 37> H          -2.79782100162226      2.06283177128710     -0.03746981852679
| 38> H          -3.28188878628492      0.63396678514828      0.91282151769573
| 39> H          -0.45362964993404      2.44124989130836     -0.00465260761200
| 40> H           2.34086357869234     -0.82683387520777     -0.00378196652349
| 41> H          -1.88684908397918     -1.61312760249038     -0.00182455193637
| 42> *
| 43>
| 44>                          ****END OF INPUT****

CARTESIAN COORDINATES (ANGSTROEM)
---------------------------------
  C     -1.052928   -0.901950   -0.000792
  C      0.253833   -1.385680   -0.000802
  C      0.540283   -2.861386    0.002033
  H     -0.388839   -3.453255   -0.036041
  H      1.092918   -3.160106    0.911123
  H      1.161703   -3.150909   -0.864214
  C      1.307892   -0.460675   -0.001806
  C      1.073241    0.912947   -0.002147
  C      2.208176    1.898651    0.002098
  H      3.184500    1.390496   -0.058071
  H      2.136634    2.597058   -0.850770
  H      2.203315    2.510206    0.922624
  C     -0.254830    1.363497   -0.002256
  C     -1.327053    0.473465   -0.001033
  C     -2.748555    0.962381    0.002454
  H     -3.310640    0.566635   -0.862288
  H     -2.797821    2.062832   -0.037470
  H     -3.281889    0.633967    0.912822
  H     -0.453630    2.441250   -0.004653
  H      2.340864   -0.826834   -0.003782
  H     -1.886849   -1.613128   -0.001825

 Total Charge           Charge          ....    0
 Multiplicity           Mult            ....    1
 Number of Electrons    NEL             ....   66
 Basis Dimension        Dim             ....  690

ORBITAL ENERGIES
----------------

  NO   OCC          E(Eh)            E(eV)
   0   2.0000     -10.119243      -275.3586
   1   2.0000     -10.119228      -275.3582
   2   2.0000     -10.119223      -275.3581
   3   2.0000     -10.104779      -274.9650
   4   2.0000     -10.104774      -274.9649
   5   2.0000     -10.104766      -274.9647
   6   2.0000     -10.103814      -274.9388
   7   2.0000     -10.103801      -274.9384
   8   2.0000     -10.103784      -274.9379
   9   2.0000      -0.836723       -22.7684
  10   2.0000      -0.755923       -20.5697
  11   2.0000      -0.755916       -20.5695
  12   2.0000      -0.673951       -18.3391
  13   2.0000      -0.653753       -17.7895
  14   2.0000      -0.653700       -17.7881
  15   2.0000      -0.547816       -14.9068
  16   2.0000      -0.547805       -14.9065
  17   2.0000      -0.472686       -12.8624
  18   2.0000      -0.452690       -12.3183
  19   2.0000      -0.407981       -11.1017
  20   2.0000      -0.406188       -11.0529
  21   2.0000      -0.388747       -10.5783
  22   2.0000      -0.388732       -10.5779
  23   2.0000      -0.379182       -10.3181
  24   2.0000      -0.379147       -10.3171
  25   2.0000      -0.369177       -10.0458
  26   2.0000      -0.369137       -10.0447
  27   2.0000      -0.338401        -9.2084
  28   2.0000      -0.318230        -8.6595
  29   2.0000      -0.310453        -8.4479
  30   2.0000      -0.310437        -8.4474
  31   2.0000      -0.227034        -6.1779
  32   2.0000      -0.226994        -6.1768
  33   0.0000      -0.018905        -0.5144
  34   0.0000      -0.018854        -0.5131
  35   0.0000      -0.004024        -0.1095
  36   0.0000       0.009856         0.2682
  37   0.0000       0.009863         0.2684

MULLIKEN ATOMIC CHARGES
-----------------------
   0 C :   -0.726477
   1 C :    0.808413
   2 C :   -0.273712
   3 H :    0.079145
   4 H :    0.121895
   5 H :    0.111138
   6 C :   -0.748739
   7 C :    0.804400
   8 C :   -0.278416
   9 H :    0.079648
  10 H :    0.110807
  11 H :    0.123626
  12 C :   -0.744343
  13 C :    0.806618
  14 C :   -0.271664
  15 H :    0.111361
  16 H :    0.077241
  17 H :    0.120459
  18 H :   -0.095055
  19 H :   -0.111317
  20 H :   -0.105028
Sum of atomic charges:    0.0000000

LOEWDIN ATOMIC CHARGES
----------------------
   0 C :    0.218266
   1 C :   -0.141096
   2 C :    0.570493
   3 H :   -0.170950
   4 H :   -0.155983
   5 H :   -0.157304
   6 C :    0.218250
   7 C :   -0.141097
   8 C :    0.570407
   9 H :   -0.170957
  10 H :   -0.157580
  11 H :   -0.155663
  12 C :    0.218331
  13 C :   -0.141107
  14 C :    0.570460
  15 H :   -0.157348
  16 H :   -0.170857
  17 H :   -0.155999
  18 H :   -0.163443
  19 H :   -0.163434
  20 H :   -0.163389

  Mayer bond orders larger than 0.100000
B(  0-C ,  1-C ) :   0.6433 B(  0-C ,  7-C ) :  -0.1532 B(  0-C , 13-C ) :   0.4946
B(  0-C , 14-C ) :   0.1903 B(  0-C , 18-H ) :   0.1107 B(  0-C , 20-H ) :   1.3678
B(  1-C ,  2-C ) :   0.5972 B(  1-C ,  6-C ) :   0.4727 B(  1-C ,  7-C ) :   0.3886
B(  1-C , 12-C ) :  -0.1656 B(  1-C , 13-C ) :   0.3801 B(  1-C , 19-H ) :  -0.1201
B(  2-C ,  3-H ) :   0.9680 B(  2-C ,  4-H ) :   1.0148 B(  2-C ,  5-H ) :   1.0227
B(  2-C ,  6-C ) :   0.1906 B(  6-C ,  7-C ) :   0.6559 B(  6-C , 13-C ) :  -0.1590
B(  6-C , 19-H ) :   1.3862 B(  6-C , 20-H ) :   0.1084 B(  7-C ,  8-C ) :   0.5875
B(  7-C , 12-C ) :   0.4808 B(  7-C , 13-C ) :   0.3774 B(  7-C , 18-H ) :  -0.1101
B(  8-C ,  9-H ) :   0.9688 B(  8-C , 10-H ) :   1.0231 B(  8-C , 11-H ) :   1.0155
B(  8-C , 12-C ) :   0.1853 B( 12-C , 13-C ) :   0.6298 B( 12-C , 18-H ) :   1.3621
B( 12-C , 19-H ) :   0.1140 B( 13-C , 14-C ) :   0.5908 B( 13-C , 20-H ) :  -0.1080
B( 14-C , 15-H ) :   1.0226 B( 14-C , 16-H ) :   0.9696 B( 14-C , 17-H ) :   1.0165

Dispersion correction           -0.023868976
FINAL SINGLE POINT ENERGY      -350.380098199301

DIPOLE MOMENT
-------------

Method             : SCF
Type of density    : Electron Density
Multiplicity       :   1
Irrep              :   0
Energy             :  -350.3562292230708977 Eh
Relativity type    :
Basis              : AO
                                X                 Y                 Z
Electronic contribution:     -0.000668308       0.002333254      -0.012029731
Nuclear contribution   :      0.000158820      -0.002916147       0.025698413
                        -----------------------------------------
Total Dipole Moment    :     -0.000509488      -0.000582892       0.013668681
                        -----------------------------------------
Magnitude (a.u.)       :      0.013690588
Magnitude (Debye)      :      0.034798708

Rotational constants in cm-1:             0.058235             0.058222             0.029602
Rotational constants in MHz :          1745.843649          1745.444193           887.453553

                             ****ORCA TERMINATED NORMALLY****
TOTAL RUN TIME: 0 days 0 hours 6 minutes 48 seconds 797 msec
