                         Program Version 6.0.0  -   RELEASE  -
|  1> !r2SCAN opt aug-cc-pVTZ d3 TightSCF SlowConv RIJCOSX defgrid2
|  2>
|  3> %pal
|  4> nprocs 8
|  5> end
|  6>
|  7> %scf
|  8> MaxIter 1500
|  9> end
| 10>
| 11> %maxcore 3500
| 12>
| 13> !CPCM
| 14> %cpcm smd true
| 15> SMDsolvent "MeCN"
| 16> surfacetype gepol_ses
| 17> rsolv 2.19
| 18> end
| 19>
| 20> * xyz -1 2
| 21> C          -0.01331421056281      1.21015152275559     -0.00003912841012
| 22> C           1.37407426915828      1.22077182581697      0.00009471803504
| 23> C           2.08268728216500      0.01623593632828      0.00008078293558
| 24> C           1.39800867624770     -1.21018542596672     -0.00005492668248
| 25> C           0.01763373542032     -1.22524409629627     -0.00018246787257
| 26> C          -0.75988843497050     -0.01763719993150     -0.00018385015586
| 27> C          -2.18998893121825     -0.10468719257966     -0.00029823993913
| 28> O          -2.82191384294989     -1.19348424477804     -0.00032077578394
| 29> C          -2.98040993394950      1.20193760901241     -0.00023396308602
| 30> H          -2.77113925068928      1.83311429650402      0.88831166373856
| 31> H          -2.77095660989795      1.83331313895105     -0.88859326031545
| 32> H          -4.05230547218906      0.94280281896802     -0.00037251615162
| 33> H          -0.53955758793286     -2.16627118900373     -0.00028423650614
| 34> H           1.97817281356228     -2.14018774357936     -0.00004958149680
| 35> F           3.44427090335711      0.03016813897025      0.00021925839865
| 36> H           1.93269491180525      2.16366570442592      0.00021265957610
| 37> H          -0.54367651735585      2.16766590040277     -0.00001523628380
| 38> *
| 39>
| 40>                          ****END OF INPUT****
 Total Charge           Charge          ....   -1
 Multiplicity           Mult            ....    2
 Number of Electrons    NEL             ....   73
Dispersion correction           -0.005196732
FINAL SINGLE POINT ENERGY      -484.157702262490
Dispersion correction             ... done (  0.1 sec)
Dispersion correction           -0.005205369
FINAL SINGLE POINT ENERGY      -484.158962421198
Dispersion correction             ... done (  0.1 sec)
Dispersion correction           -0.005207889
FINAL SINGLE POINT ENERGY      -484.159207501730
Dispersion correction             ... done (  0.1 sec)
FINAL SINGLE POINT ENERGY      -484.159254564330
Dispersion correction             ... done (  0.1 sec)
Dispersion correction           -0.005206805
FINAL SINGLE POINT ENERGY      -484.159259469290
Dispersion correction             ... done (  0.1 sec)
Dispersion correction           -0.005206498
FINAL SINGLE POINT ENERGY      -484.159261592620
Dispersion correction             ... done (  0.1 sec)
                    ***********************HURRAY********************

CARTESIAN COORDINATES (ANGSTROEM)
---------------------------------
  C     -0.022090    1.201035   -0.000393
  C      1.360952    1.223754    0.000163
  C      2.055845    0.015865    0.000092
  C      1.401052   -1.212474   -0.001016
  C      0.019061   -1.234617   -0.001366
  C     -0.757712   -0.028183   -0.000458
  C     -2.185203   -0.089530    0.001685
  O     -2.824300   -1.196530    0.005763
  C     -2.970398    1.208777   -0.000765
  H     -2.759550    1.830959    0.877820
  H     -2.754161    1.831100   -0.877919
  H     -4.035506    0.975287   -0.003893
  H     -0.509943   -2.180090   -0.002079
  H      1.979029   -2.130665   -0.001614
  F      3.432617    0.039679    0.001241
  H      1.906284    2.161174    0.000874
  H     -0.551586    2.146587    0.000156

 Multiplicity           Mult            ....    2
 Number of Electrons    NEL             ....   73
 Basis Dimension        Dim             ....  621

ORBITAL ENERGIES
----------------
                 SPIN UP ORBITALS
  NO   OCC          E(Eh)            E(eV)
   0   1.0000     -24.484629      -666.2606
   1   1.0000     -18.871578      -513.5217
   2   1.0000     -10.088062      -274.5101
   3   1.0000     -10.046841      -273.3884
   4   1.0000     -10.022207      -272.7181
   5   1.0000     -10.021817      -272.7075
   6   1.0000     -10.019823      -272.6533
   7   1.0000     -10.015112      -272.5250
   8   1.0000     -10.006873      -272.3009
   9   1.0000     -10.001492      -272.1544
  10   1.0000      -1.161270       -31.5998
  11   1.0000      -0.915415       -24.9097
  12   1.0000      -0.801281       -21.8040
  13   1.0000      -0.708484       -19.2788
  14   1.0000      -0.699839       -19.0436
  15   1.0000      -0.659193       -17.9376
  16   1.0000      -0.576389       -15.6843
  17   1.0000      -0.560659       -15.2563
  18   1.0000      -0.494122       -13.4457
  19   1.0000      -0.486399       -13.2356
  20   1.0000      -0.429121       -11.6770
  21   1.0000      -0.413207       -11.2439
  22   1.0000      -0.406695       -11.0667
  23   1.0000      -0.391873       -10.6634
  24   1.0000      -0.375282       -10.2119
  25   1.0000      -0.375089       -10.2067
  26   1.0000      -0.354859        -9.6562
  27   1.0000      -0.345894        -9.4123
  28   1.0000      -0.321798        -8.7566
  29   1.0000      -0.321476        -8.7478
  30   1.0000      -0.308716        -8.4006
  31   1.0000      -0.280221        -7.6252
  32   1.0000      -0.279905        -7.6166
  33   1.0000      -0.230821        -6.2810
  34   1.0000      -0.208620        -5.6768
  35   1.0000      -0.170758        -4.6466
  36   1.0000      -0.076350        -2.0776
  37   0.0000      -0.023819        -0.6481
  38   0.0000       0.005438         0.1480
  39   0.0000       0.020149         0.5483
  40   0.0000       0.023430         0.6376
  41   0.0000       0.029067         0.7909

                 SPIN DOWN ORBITALS
  NO   OCC          E(Eh)            E(eV)
   0   1.0000     -24.483578      -666.2320
   1   1.0000     -18.865153      -513.3469
   2   1.0000     -10.082759      -274.3658
   3   1.0000     -10.041507      -273.2433
   4   1.0000     -10.023973      -272.7662
   5   1.0000     -10.023358      -272.7495
   6   1.0000     -10.017070      -272.5783
   7   1.0000     -10.011774      -272.4342
   8   1.0000     -10.005948      -272.2757
   9   1.0000     -10.001936      -272.1665
  10   1.0000      -1.159299       -31.5461
  11   1.0000      -0.904839       -24.6219
  12   1.0000      -0.797607       -21.7040
  13   1.0000      -0.702996       -19.1295
  14   1.0000      -0.695673       -18.9302
  15   1.0000      -0.656378       -17.8610
  16   1.0000      -0.568146       -15.4600
  17   1.0000      -0.558157       -15.1882
  18   1.0000      -0.490901       -13.3581
  19   1.0000      -0.482058       -13.1175
  20   1.0000      -0.428131       -11.6500
  21   1.0000      -0.403699       -10.9852
  22   1.0000      -0.402520       -10.9531
  23   1.0000      -0.390283       -10.6202
  24   1.0000      -0.374771       -10.1980
  25   1.0000      -0.364636        -9.9223
  26   1.0000      -0.353048        -9.6069
  27   1.0000      -0.344391        -9.3713
  28   1.0000      -0.319224        -8.6865
  29   1.0000      -0.313160        -8.5215
  30   1.0000      -0.305916        -8.3244
  31   1.0000      -0.278407        -7.5758
  32   1.0000      -0.258779        -7.0417
  33   1.0000      -0.223236        -6.0746
  34   1.0000      -0.191045        -5.1986
  35   1.0000      -0.165794        -4.5115
  36   0.0000      -0.036884        -1.0037
  37   0.0000      -0.017809        -0.4846
  38   0.0000       0.008349         0.2272
  39   0.0000       0.021748         0.5918
  40   0.0000       0.026038         0.7085

MULLIKEN ATOMIC CHARGES AND SPIN POPULATIONS
--------------------------------------------
   0 C :   -0.423168    0.265499
   1 C :   -0.881025   -0.180004
   2 C :    0.595871    0.328277
   3 C :   -0.712487   -0.184587
   4 C :   -0.900822    0.286039
   5 C :    1.680667    0.004983
   6 C :    0.430288    0.290002
   7 O :   -1.100916    0.228519
   8 C :   -0.547947   -0.059468
   9 H :    0.196998    0.023530
  10 H :    0.197499    0.023274
  11 H :    0.133603   -0.008385
  12 H :    0.095738   -0.020660
  13 H :    0.407600   -0.002439
  14 F :   -0.552596    0.020066
  15 H :    0.396967   -0.003098
  16 H :   -0.016271   -0.011547
Sum of atomic charges         :   -1.0000000

LOEWDIN ATOMIC CHARGES AND SPIN POPULATIONS
-------------------------------------------
   0 C :    0.151207    0.088320
   1 C :    0.140828    0.020666
   2 C :   -0.565448    0.129549
   3 C :    0.134748    0.020227
   4 C :    0.141052    0.100540
   5 C :   -0.211450    0.116632
   6 C :   -0.665970    0.196967
   7 O :    0.315277    0.199516
   8 C :    0.502639    0.038810
   9 H :   -0.186221    0.009926
  10 H :   -0.186516    0.009841
  11 H :   -0.208728   -0.000790
  12 H :   -0.222427    0.024149
  13 H :   -0.195297   -0.007283
  14 F :    0.462480    0.038809
  15 H :   -0.195289   -0.005954
  16 H :   -0.210885    0.020075

  Mayer bond orders larger than 0.100000
B(  0-C ,  1-C ) :   0.8664 B(  0-C ,  2-C ) :  -0.2670 B(  0-C ,  3-C ) :  -0.1913
B(  0-C ,  4-C ) :  -0.3771 B(  0-C ,  5-C ) :   0.1585 B(  0-C ,  6-C ) :   0.2382
B(  0-C , 12-H ) :   0.1247 B(  0-C , 16-H ) :   1.4803 B(  1-C ,  2-C ) :   1.2578
B(  1-C ,  3-C ) :   0.2994 B(  1-C ,  4-C ) :  -0.1194 B(  1-C ,  5-C ) :   0.1855
B(  1-C , 12-H ) :  -0.1085 B(  1-C , 14-F ) :   0.1635 B(  1-C , 15-H ) :   0.5611
B(  1-C , 16-H ) :  -0.1066 B(  2-C ,  3-C ) :   1.3040 B(  2-C ,  4-C ) :  -0.3149
B(  2-C ,  6-C ) :   0.1063 B(  2-C , 14-F ) :   0.2587 B(  3-C ,  4-C ) :   1.2715
B(  3-C , 13-H ) :   0.5462 B(  3-C , 14-F ) :   0.1556 B(  3-C , 16-H ) :  -0.1465
B(  4-C ,  5-C ) :  -0.1371 B(  4-C ,  6-C ) :   0.4397 B(  4-C , 12-H ) :   1.1161
B(  4-C , 16-H ) :   0.1782 B(  5-C ,  6-C ) :   0.3306 B(  5-C ,  7-O ) :   0.1794
B(  5-C , 12-H ) :  -0.1156 B(  5-C , 16-H ) :  -0.2850 B(  6-C ,  7-O ) :   0.6511
B(  6-C ,  8-C ) :   0.8550 B(  6-C , 13-H ) :   0.1083 B(  7-O , 12-H ) :   0.1290
B(  8-C ,  9-H ) :   0.9905 B(  8-C , 10-H ) :   0.9908 B(  8-C , 11-H ) :   0.9653
B( 12-H , 16-H ) :   0.1470 B( 13-H , 14-F ) :   0.1027

Dispersion correction           -0.005206435
FINAL SINGLE POINT ENERGY      -484.159261144206

DIPOLE MOMENT
-------------

Method             : SCF
Type of density    : Electron Density
Multiplicity       :   2
Irrep              :   0
Energy             :  -484.1540547088796416 Eh
Relativity type    :
Basis              : AO
                                X                 Y                 Z
Electronic contribution:     11.358081278      -2.802615817       0.006106825
Nuclear contribution   :     -9.534043923       4.321651544      -0.010760483
                        -----------------------------------------
Total Dipole Moment    :      1.824037355       1.519035726      -0.004653658
                        -----------------------------------------
Magnitude (a.u.)       :      2.373731970
Magnitude (Debye)      :      6.033547175

Rotational constants in cm-1:             0.120534             0.025551             0.021164
Rotational constants in MHz :          3613.524462           765.995517           634.486207

                             ****ORCA TERMINATED NORMALLY****
TOTAL RUN TIME: 0 days 0 hours 18 minutes 29 seconds 31 msec
