                         Program Version 6.0.0  -   RELEASE  -
|  1> !r2SCANh freq aug-cc-pVTZ d3 TightSCF SlowConv RIJCOSX defgrid2
|  2>
|  3> %pal
|  4> nprocs 12
|  5> end
|  6>
|  7> %scf
|  8> MaxIter 1500
|  9> end
| 10>
| 11> %maxcore 5000
| 12>
| 13> !CPCM
| 14> %cpcm smd true
| 15> SMDsolvent "MeCN"
| 16> surfacetype gepol_ses
| 17> rsolv 2.19
| 18> end
| 19>
| 20> * xyz 0 1
| 21> C           2.41883634327680     -0.70475573534608     -0.00021759826276
| 22> C           2.41884707751691      0.70472192859667     -0.00017963989267
| 23> C           1.23682983461157      1.39685836481683     -0.00007911352578
| 24> C           0.00000751543743      0.71310872105300     -0.00000848561156
| 25> C          -1.23680396405308      1.39687886089851      0.00007631229963
| 26> C          -2.41883123669556      0.70475885201605      0.00020006959905
| 27> C          -2.41884042460760     -0.70471724927561      0.00023059249725
| 28> C          -1.23682665670851     -1.39685772700677      0.00009986535106
| 29> C          -0.00000313531741     -0.71311096961137     -0.00001142508623
| 30> C           1.23681063383579     -1.39687738674671     -0.00011442935990
| 31> H           1.23376299031208     -2.47970117212649     -0.00001151904688
| 32> H          -1.23380026889571     -2.47968286378131     -0.00000554176980
| 33> H          -3.35976668153918     -1.23841699592363     -0.00014868825182
| 34> H          -3.35975201654282      1.23847337932962     -0.00020534716611
| 35> H          -1.23375355085069      2.47970426447108     -0.00005167649403
| 36> H           1.23379221633742      2.47968483001350      0.00005679587301
| 37> H           3.35977016390712      1.23842771560662      0.00026716016146
| 38> H           3.35975245997543     -1.23847471698393      0.00017906868608
| 39> *
| 40>
| 41>                          ****END OF INPUT****

CARTESIAN COORDINATES (ANGSTROEM)
---------------------------------
  C      2.418836   -0.704756   -0.000218
  C      2.418847    0.704722   -0.000180
  C      1.236830    1.396858   -0.000079
  C      0.000008    0.713109   -0.000008
  C     -1.236804    1.396879    0.000076
  C     -2.418831    0.704759    0.000200
  C     -2.418840   -0.704717    0.000231
  C     -1.236827   -1.396858    0.000100
  C     -0.000003   -0.713111   -0.000011
  C      1.236811   -1.396877   -0.000114
  H      1.233763   -2.479701   -0.000012
  H     -1.233800   -2.479683   -0.000006
  H     -3.359767   -1.238417   -0.000149
  H     -3.359752    1.238473   -0.000205
  H     -1.233754    2.479704   -0.000052
  H      1.233792    2.479685    0.000057
  H      3.359770    1.238428    0.000267
  H      3.359752   -1.238475    0.000179

 Total Charge           Charge          ....    0
 Multiplicity           Mult            ....    1
 Number of Electrons    NEL             ....   68
 Basis Dimension        Dim             ....  644

ORBITAL ENERGIES
----------------

  NO   OCC          E(Eh)            E(eV)
   0   2.0000     -10.171097      -276.7696
   1   2.0000     -10.170686      -276.7584
   2   2.0000     -10.159571      -276.4560
   3   2.0000     -10.159564      -276.4558
   4   2.0000     -10.159412      -276.4517
   5   2.0000     -10.159404      -276.4514
   6   2.0000     -10.158920      -276.4383
   7   2.0000     -10.158920      -276.4383
   8   2.0000     -10.158634      -276.4305
   9   2.0000     -10.158628      -276.4303
  10   2.0000      -0.881414       -23.9845
  11   2.0000      -0.825892       -22.4737
  12   2.0000      -0.776970       -21.1424
  13   2.0000      -0.743152       -20.2222
  14   2.0000      -0.719976       -19.5915
  15   2.0000      -0.623214       -16.9585
  16   2.0000      -0.608705       -16.5637
  17   2.0000      -0.592142       -16.1130
  18   2.0000      -0.507653       -13.8140
  19   2.0000      -0.501938       -13.6584
  20   2.0000      -0.486498       -13.2383
  21   2.0000      -0.436378       -11.8744
  22   2.0000      -0.432752       -11.7758
  23   2.0000      -0.406895       -11.0722
  24   2.0000      -0.406041       -11.0489
  25   2.0000      -0.395034       -10.7494
  26   2.0000      -0.387307       -10.5392
  27   2.0000      -0.356006        -9.6874
  28   2.0000      -0.330706        -8.9990
  29   2.0000      -0.324923        -8.8416
  30   2.0000      -0.316723        -8.6185
  31   2.0000      -0.288818        -7.8591
  32   2.0000      -0.248489        -6.7617
  33   2.0000      -0.219415        -5.9706
  34   0.0000      -0.059598        -1.6217
  35   0.0000      -0.030548        -0.8312
  36   0.0000       0.001399         0.0381
  37   0.0000       0.010514         0.2861
  38   0.0000       0.023183         0.6308

MULLIKEN ATOMIC CHARGES
-----------------------
   0 C :   -0.435447
   1 C :   -0.435251
   2 C :   -1.224433
   3 C :    2.008554
   4 C :   -1.222280
   5 C :   -0.435050
   6 C :   -0.432997
   7 C :   -1.225443
   8 C :    2.000003
   9 C :   -1.225253
  10 H :    0.007490
  11 H :    0.005426
  12 H :    0.654984
  13 H :    0.644441
  14 H :    0.010889
  15 H :    0.002460
  16 H :    0.651119
  17 H :    0.650788
Sum of atomic charges:   -0.0000000

LOEWDIN ATOMIC CHARGES
----------------------
   0 C :    0.200509
   1 C :    0.200511
   2 C :    0.216566
   3 C :   -0.132146
   4 C :    0.216568
   5 C :    0.200507
   6 C :    0.200508
   7 C :    0.216566
   8 C :   -0.132146
   9 C :    0.216568
  10 H :   -0.171695
  11 H :   -0.171692
  12 H :   -0.179308
  13 H :   -0.179309
  14 H :   -0.171691
  15 H :   -0.171695
  16 H :   -0.179312
  17 H :   -0.179310

  Mayer bond orders larger than 0.100000
B(  0-C ,  1-C ) :   1.0478 B(  0-C ,  3-C ) :  -0.3349 B(  0-C ,  9-C ) :   1.1530
B(  0-C , 17-H ) :   0.2560 B(  1-C ,  2-C ) :   1.1487 B(  1-C ,  8-C ) :  -0.3333
B(  1-C , 16-H ) :   0.2557 B(  2-C ,  3-C ) :  -0.4530 B(  2-C ,  4-C ) :   0.6207
B(  2-C ,  7-C ) :  -0.1093 B(  2-C ,  8-C ) :  -0.3270 B(  2-C , 15-H ) :   1.4902
B(  2-C , 16-H ) :  -0.2183 B(  3-C ,  4-C ) :  -0.4468 B(  3-C ,  6-C ) :  -0.3362
B(  3-C ,  7-C ) :  -0.3258 B(  3-C ,  8-C ) :   1.3416 B(  3-C ,  9-C ) :  -0.3257
B(  3-C , 14-H ) :  -0.1503 B(  3-C , 15-H ) :  -0.1556 B(  4-C ,  5-C ) :   1.1488
B(  4-C ,  8-C ) :  -0.3214 B(  4-C ,  9-C ) :  -0.1076 B(  4-C , 13-H ) :  -0.2149
B(  4-C , 14-H ) :   1.4738 B(  5-C ,  6-C ) :   1.0462 B(  5-C ,  8-C ) :  -0.3325
B(  5-C , 13-H ) :   0.2656 B(  6-C ,  7-C ) :   1.1533 B(  6-C , 12-H ) :   0.2504
B(  7-C ,  8-C ) :  -0.4466 B(  7-C ,  9-C ) :   0.6142 B(  7-C , 11-H ) :   1.4840
B(  7-C , 12-H ) :  -0.2173 B(  8-C ,  9-C ) :  -0.4478 B(  8-C , 10-H ) :  -0.1515
B(  8-C , 11-H ) :  -0.1533 B(  9-C , 10-H ) :   1.4805 B(  9-C , 17-H ) :  -0.2168

Dispersion correction           -0.006599572
FINAL SINGLE POINT ENERGY      -385.800313402587

DIPOLE MOMENT
-------------

Method             : SCF
Type of density    : Electron Density
Multiplicity       :   1
Irrep              :   0
Energy             :  -385.7937138303860252 Eh
Relativity type    :
Basis              : AO
                                X                 Y                 Z
Electronic contribution:      0.000004935      -0.000017739      -0.000052617
Nuclear contribution   :     -0.000013607       0.000007308       0.000073263
                        -----------------------------------------
Total Dipole Moment    :     -0.000008672      -0.000010431       0.000020645
                        -----------------------------------------
Magnitude (a.u.)       :      0.000024703
Magnitude (Debye)      :      0.000062790

VIBRATIONAL FREQUENCIES
-----------------------

Scaling factor for frequencies =  1.000000000  (already applied!)

     0:       0.00 cm**-1
     1:       0.00 cm**-1
     2:       0.00 cm**-1
     3:       0.00 cm**-1
     4:       0.00 cm**-1
     5:       0.00 cm**-1
     6:     163.29 cm**-1
     7:     178.44 cm**-1
     8:     352.97 cm**-1
     9:     390.91 cm**-1
    10:     472.69 cm**-1
    11:     482.80 cm**-1
    12:     515.10 cm**-1
    13:     520.66 cm**-1
    14:     594.43 cm**-1
    15:     627.94 cm**-1
    16:     731.53 cm**-1
    17:     776.53 cm**-1
    18:     793.73 cm**-1
    19:     807.01 cm**-1
    20:     810.81 cm**-1
    21:     859.97 cm**-1
    22:     908.63 cm**-1
    23:     950.26 cm**-1
    24:     976.57 cm**-1
    25:     994.60 cm**-1
    26:    1004.22 cm**-1
    27:    1014.07 cm**-1
    28:    1039.50 cm**-1
    29:    1047.17 cm**-1
    30:    1145.78 cm**-1
    31:    1162.68 cm**-1
    32:    1164.77 cm**-1
    33:    1168.97 cm**-1
    34:    1239.47 cm**-1
    35:    1268.50 cm**-1
    36:    1286.48 cm**-1
    37:    1410.39 cm**-1
    38:    1418.35 cm**-1
    39:    1421.99 cm**-1
    40:    1490.81 cm**-1
    41:    1494.35 cm**-1
    42:    1556.09 cm**-1
    43:    1622.68 cm**-1
    44:    1646.63 cm**-1
    45:    1679.14 cm**-1
    46:    3174.78 cm**-1
    47:    3177.23 cm**-1
    48:    3180.85 cm**-1
    49:    3182.65 cm**-1
    50:    3194.65 cm**-1
    51:    3195.42 cm**-1
    52:    3208.35 cm**-1
    53:    3209.41 cm**-1

IR SPECTRUM
-----------

 Mode   freq       eps      Int      T**2         TX        TY        TZ
       cm**-1   L/(mol*cm) km/mol    a.u.
----------------------------------------------------------------------------
  6:    163.29   0.001102    5.57  0.002106  (-0.000058  0.000003 -0.045889)
  7:    178.44   0.000000    0.00  0.000000  (-0.000005 -0.000255 -0.000003)
  8:    352.97   0.001097    5.54  0.000970  ( 0.000000 -0.031137 -0.000000)
  9:    390.91   0.000000    0.00  0.000000  (-0.000007 -0.000004  0.000007)
 10:    472.69   0.000000    0.00  0.000000  (-0.000025 -0.000001 -0.000039)
 11:    482.80   0.010507   53.10  0.006791  (-0.000025  0.000001  0.082408)
 12:    515.10   0.000000    0.00  0.000000  (-0.000005  0.000000 -0.000003)
 13:    520.66   0.000000    0.00  0.000000  (-0.000001  0.000000  0.000002)
 14:    594.43   0.000000    0.00  0.000000  ( 0.000005  0.000011 -0.000001)
 15:    627.94   0.001739    8.79  0.000864  ( 0.029401 -0.000001 -0.000143)
 16:    731.53   0.000000    0.00  0.000000  (-0.000003 -0.000004  0.000005)
 17:    776.53   0.000000    0.00  0.000000  ( 0.000001  0.000001  0.000002)
 18:    793.73   0.000000    0.00  0.000000  (-0.000025 -0.000000 -0.000134)
 19:    807.01   0.048374  244.46  0.018706  (-0.000005  0.000005 -0.136769)
 20:    810.81   0.000007    0.04  0.000003  (-0.000002 -0.001660 -0.000032)
 21:    859.97   0.000000    0.00  0.000000  (-0.000007  0.000250 -0.000002)
 22:    908.63   0.000000    0.00  0.000000  (-0.000007  0.000004  0.000011)
 23:    950.26   0.000000    0.00  0.000000  (-0.000001 -0.000000 -0.000001)
 24:    976.57   0.000000    0.00  0.000000  (-0.000004  0.000003  0.000006)
 25:    994.60   0.001687    8.52  0.000529  (-0.000332  0.000001  0.023003)
 26:   1004.22   0.000000    0.00  0.000000  (-0.000007  0.000276 -0.000005)
 27:   1014.07   0.000000    0.00  0.000000  ( 0.000016 -0.000005 -0.000002)
 28:   1039.50   0.006338   32.03  0.001903  (-0.043620  0.000001 -0.000234)
 29:   1047.17   0.000000    0.00  0.000000  ( 0.000001  0.000002 -0.000000)
 30:   1145.78   0.002705   13.67  0.000737  (-0.000004  0.027142 -0.000000)
 31:   1162.68   0.000000    0.00  0.000000  ( 0.000014 -0.000002 -0.000001)
 32:   1164.77   0.000197    0.99  0.000053  ( 0.007257 -0.000001  0.000031)
 33:   1168.97   0.000000    0.00  0.000000  (-0.000006  0.000002  0.000000)
 34:   1239.47   0.000321    1.62  0.000081  ( 0.008992 -0.000002  0.000035)
 35:   1268.50   0.000000    0.00  0.000000  (-0.000003  0.000003  0.000003)
 36:   1286.48   0.001295    6.55  0.000314  ( 0.000000  0.017726  0.000000)
 37:   1410.39   0.000336    1.70  0.000074  (-0.008623 -0.000001 -0.000048)
 38:   1418.35   0.002732   13.81  0.000601  ( 0.000001 -0.024517 -0.000000)
 39:   1421.99   0.000000    0.00  0.000000  ( 0.000000  0.000007  0.000000)
 40:   1490.81   0.000000    0.00  0.000000  (-0.000000 -0.000001 -0.000000)
 41:   1494.35   0.000000    0.00  0.000000  (-0.000001  0.000000  0.000005)
 42:   1556.09   0.004101   20.73  0.000822  ( 0.028679 -0.000003 -0.000028)
 43:   1622.68   0.000000    0.00  0.000000  ( 0.000001  0.000002 -0.000001)
 44:   1646.63   0.000751    3.80  0.000142  ( 0.000000  0.011933  0.000000)
 45:   1679.14   0.000000    0.00  0.000000  ( 0.000000 -0.000001  0.000001)
 46:   3174.78   0.000000    0.00  0.000000  ( 0.000002  0.000002 -0.000000)
 47:   3177.23   0.003710   18.75  0.000364  ( 0.000003  0.019089  0.000000)
 48:   3180.85   0.000091    0.46  0.000009  ( 0.002988  0.000009 -0.000056)
 49:   3182.65   0.000000    0.00  0.000000  ( 0.000001 -0.000012 -0.000000)
 50:   3194.65   0.000000    0.00  0.000000  ( 0.000000 -0.000066 -0.000000)
 51:   3195.42   0.017053   86.18  0.001665  ( 0.000006 -0.040809 -0.000000)
 52:   3208.35   0.013795   69.71  0.001342  ( 0.036630  0.000005 -0.000130)
 53:   3209.41   0.000000    0.00  0.000000  (-0.000036  0.000004  0.000000)

--------------------------
THERMOCHEMISTRY AT 298.15K
--------------------------

Temperature         ...   298.15 K
Pressure            ...     1.00 atm
Total Mass          ...   128.17 AMU
Quasi RRHO          ...     True
Cut-Off Frequency   ...     1.00 cm^-1

Throughout the following assumptions are being made:
  (1) The electronic state is orbitally nondegenerate
  (2) There are no thermally accessible electronically excited states
  (3) Hindered rotations indicated by low frequency modes are not
      treated as such but are treated as vibrations and this may
      cause some error
  (4) All equations used are the standard statistical mechanics
      equations for an ideal gas
  (5) All vibrations are strictly harmonic

freq.     163.29  E(vib)   ...       0.39
freq.     178.44  E(vib)   ...       0.37
freq.     352.97  E(vib)   ...       0.22
freq.     390.91  E(vib)   ...       0.20
freq.     472.69  E(vib)   ...       0.15
freq.     482.80  E(vib)   ...       0.15
freq.     515.10  E(vib)   ...       0.13
freq.     520.66  E(vib)   ...       0.13
freq.     594.43  E(vib)   ...       0.10
freq.     627.94  E(vib)   ...       0.09
freq.     731.53  E(vib)   ...       0.06
freq.     776.53  E(vib)   ...       0.05
freq.     793.73  E(vib)   ...       0.05
freq.     807.01  E(vib)   ...       0.05
freq.     810.81  E(vib)   ...       0.05
freq.     859.97  E(vib)   ...       0.04
freq.     908.63  E(vib)   ...       0.03
freq.     950.26  E(vib)   ...       0.03
freq.     976.57  E(vib)   ...       0.03
freq.     994.60  E(vib)   ...       0.02
freq.    1004.22  E(vib)   ...       0.02
freq.    1014.07  E(vib)   ...       0.02
freq.    1039.50  E(vib)   ...       0.02
freq.    1047.17  E(vib)   ...       0.02
freq.    1145.78  E(vib)   ...       0.01
freq.    1162.68  E(vib)   ...       0.01
freq.    1164.77  E(vib)   ...       0.01
freq.    1168.97  E(vib)   ...       0.01
freq.    1239.47  E(vib)   ...       0.01
freq.    1268.50  E(vib)   ...       0.01
freq.    1286.48  E(vib)   ...       0.01
freq.    1410.39  E(vib)   ...       0.00
freq.    1418.35  E(vib)   ...       0.00
freq.    1421.99  E(vib)   ...       0.00
freq.    1490.81  E(vib)   ...       0.00
freq.    1494.35  E(vib)   ...       0.00
freq.    1556.09  E(vib)   ...       0.00
freq.    1622.68  E(vib)   ...       0.00
freq.    1646.63  E(vib)   ...       0.00
freq.    1679.14  E(vib)   ...       0.00
freq.    3174.78  E(vib)   ...       0.00
freq.    3177.23  E(vib)   ...       0.00
freq.    3180.85  E(vib)   ...       0.00
freq.    3182.65  E(vib)   ...       0.00
freq.    3194.65  E(vib)   ...       0.00
freq.    3195.42  E(vib)   ...       0.00
freq.    3208.35  E(vib)   ...       0.00
freq.    3209.41  E(vib)   ...       0.00

------------
INNER ENERGY
------------

The inner energy is: U= E(el) + E(ZPE) + E(vib) + E(rot) + E(trans)
    E(el)   - is the total energy from the electronic structure calculation
              = E(kin-el) + E(nuc-el) + E(el-el) + E(nuc-nuc)
    E(ZPE)  - the the zero temperature vibrational energy from the frequency calculation
    E(vib)  - the the finite temperature correction to E(ZPE) due to population
              of excited vibrational states
    E(rot)  - is the rotational thermal energy
    E(trans)- is the translational thermal energy

Summary of contributions to the inner energy U:
Electronic energy                ...   -385.80031340 Eh
Zero point energy                ...      0.14742988 Eh      92.51 kcal/mol
Thermal vibrational correction   ...      0.00405456 Eh       2.54 kcal/mol
Thermal rotational correction    ...      0.00141627 Eh       0.89 kcal/mol
Thermal translational correction ...      0.00141627 Eh       0.89 kcal/mol
-----------------------------------------------------------------------
Total thermal energy                   -385.64599641 Eh

Summary of corrections to the electronic energy:
(perhaps to be used in another calculation)
Total thermal correction                  0.00688711 Eh       4.32 kcal/mol
Non-thermal (ZPE) correction              0.14742988 Eh      92.51 kcal/mol
-----------------------------------------------------------------------
Total correction                          0.15431699 Eh      96.84 kcal/mol

--------
ENTHALPY
--------

The enthalpy is H = U + kB*T
                kB is Boltzmann's constant
Total thermal energy              ...   -385.64599641 Eh
Thermal Enthalpy correction       ...      0.00094421 Eh       0.59 kcal/mol
-----------------------------------------------------------------------
Total Enthalpy                    ...   -385.64505220 Eh

Note: Rotational entropy computed according to Herzberg
Infrared and Raman Spectra, Chapter V,1, Van Nostrand Reinhold, 1945
Point Group:  C2, Symmetry Number:   2
Rotational constants in cm-1:     0.104837     0.041497     0.029729

Vibrational entropy computed according to the QRRHO of S. Grimme
Chem.Eur.J. 2012 18 9955 using a reference frequency of 100.0 cm-1

-------
ENTROPY
-------

The entropy contributions are T*S = T*(S(el)+S(vib)+S(rot)+S(trans))
     S(el)   - electronic entropy
     S(vib)  - vibrational entropy
     S(rot)  - rotational entropy
     S(trans)- translational entropy
The entropies will be listed as multiplied by the temperature to get
units of energy

Electronic entropy                ...      0.00000000 Eh      0.00 kcal/mol
Vibrational entropy               ...      0.00616330 Eh      3.87 kcal/mol
Rotational entropy                ...      0.01308303 Eh      8.21 kcal/mol
Translational entropy             ...      0.01922279 Eh     12.06 kcal/mol
-----------------------------------------------------------------------
Final entropy term                ...      0.03846912 Eh     24.14 kcal/mol

In case the symmetry of your molecule has not been determined correctly
or in case you have a reason to use a different symmetry number we print
out the resulting rotational entropy values for sn=1,12:

 non-linear molecules -----------------------------------
|  sn= 1 | S(rot)=       0.01373749 Eh      8.62 kcal/mol|
|  sn= 2 | S(rot)=       0.01308303 Eh      8.21 kcal/mol|
|  sn= 3 | S(rot)=       0.01270020 Eh      7.97 kcal/mol|
|  sn= 4 | S(rot)=       0.01242858 Eh      7.80 kcal/mol|
|  sn= 5 | S(rot)=       0.01221789 Eh      7.67 kcal/mol|
|  sn= 6 | S(rot)=       0.01204574 Eh      7.56 kcal/mol|
|  sn= 7 | S(rot)=       0.01190020 Eh      7.47 kcal/mol|
|  sn= 8 | S(rot)=       0.01177412 Eh      7.39 kcal/mol|
|  sn= 9 | S(rot)=       0.01166291 Eh      7.32 kcal/mol|
|  sn=10 | S(rot)=       0.01156343 Eh      7.26 kcal/mol|
|  sn=11 | S(rot)=       0.01147344 Eh      7.20 kcal/mol|
|  sn=12 | S(rot)=       0.01139129 Eh      7.15 kcal/mol|
 linear molecules ---------------------------------------
|  Dinfh | S(rot)=       0.00864519 Eh      5.42 kcal/mol|
|  Cinfv | S(rot)=       0.00929965 Eh      5.84 kcal/mol|
 --------------------------------------------------------

                             ****ORCA TERMINATED NORMALLY****
TOTAL RUN TIME: 0 days 0 hours 43 minutes 36 seconds 480 msec
