                         Program Version 6.0.0  -   RELEASE  -
|  1> !r2SCAN freq aug-cc-pVTZ d3 TightSCF SlowConv RIJCOSX defgrid2
|  2>
|  3> %pal
|  4> nprocs 12
|  5> end
|  6>
|  7> %scf
|  8> MaxIter 1500
|  9> end
| 10>
| 11> %maxcore 5000
| 12>
| 13> !CPCM
| 14> %cpcm smd true
| 15> SMDsolvent "MeCN"
| 16> surfacetype gepol_ses
| 17> rsolv 2.19
| 18> end
| 19>
| 20> * xyz 1 2
| 21> C          -0.33502604020477      0.86596500743041      0.00238792061257
| 22> C          -1.60442131447860      0.30064992631910      0.00126441964574
| 23> C          -1.76200796855091     -1.11827896847971      0.00079654672321
| 24> C          -0.64038301762893     -1.93289315778860      0.00364631314182
| 25> C           0.62475393813690     -1.37752400468035      0.00526246798572
| 26> C           0.79410266859926      0.05133512988904      0.00334045151751
| 27> C           2.08914737369558      0.65234205202298      0.00288314744393
| 28> C           3.27697525447128     -0.01853490946842     -0.00253206271997
| 29> C           4.58753258604505      0.64287932328811     -0.00268224412111
| 30> H           5.16655745865907      0.31658151262325     -0.87494947833210
| 31> H           5.17126062701009      0.30583025304081      0.86230998969000
| 32> H           4.51484426479553      1.72891064783402      0.00404980163594
| 33> H           3.28747070615542     -1.10344945386112     -0.00799200816756
| 34> H           2.11408063486498      1.73822985187215      0.00541167838628
| 35> H           1.48882221941777     -2.02605229698285      0.00865411762678
| 36> H          -0.76160937273496     -3.00765871447167      0.00456273471046
| 37> H          -2.74921881286394     -1.55754388325502     -0.00292173421231
| 38> O          -2.63244966971839      1.14098964310180      0.00061260065395
| 39> C          -3.97858047646539      0.62095000947966     -0.00288900378536
| 40> H          -4.61858737899174      1.49754498967943     -0.00104102640870
| 41> H          -4.15623522130798      0.02540031020898      0.89217240355534
| 42> H          -4.15299476149735      0.03152554012033     -0.90256186431195
| 43> H          -0.23687109740796      1.94413519207768      0.00145072872981
| 44> *
| 45>
| 46>                          ****END OF INPUT****

CARTESIAN COORDINATES (ANGSTROEM)
---------------------------------
  C     -0.335026    0.865965    0.002388
  C     -1.604421    0.300650    0.001264
  C     -1.762008   -1.118279    0.000797
  C     -0.640383   -1.932893    0.003646
  C      0.624754   -1.377524    0.005262
  C      0.794103    0.051335    0.003340
  C      2.089147    0.652342    0.002883
  C      3.276975   -0.018535   -0.002532
  C      4.587533    0.642879   -0.002682
  H      5.166557    0.316582   -0.874949
  H      5.171261    0.305830    0.862310
  H      4.514844    1.728911    0.004050
  H      3.287471   -1.103449   -0.007992
  H      2.114081    1.738230    0.005412
  H      1.488822   -2.026052    0.008654
  H     -0.761609   -3.007659    0.004563
  H     -2.749219   -1.557544   -0.002922
  O     -2.632450    1.140990    0.000613
  C     -3.978580    0.620950   -0.002889
  H     -4.618587    1.497545   -0.001041
  H     -4.156235    0.025400    0.892172
  H     -4.152995    0.031526   -0.902562
  H     -0.236871    1.944135    0.001451

 Total Charge           Charge          ....    1
 Multiplicity           Mult            ....    2
 Number of Electrons    NEL             ....   79
 Basis Dimension        Dim             ....  782

ORBITAL ENERGIES
----------------
                 SPIN UP ORBITALS
  NO   OCC          E(Eh)            E(eV)
   0   1.0000     -19.035062      -517.9704
   1   1.0000     -10.147258      -276.1209
   2   1.0000     -10.099505      -274.8215
   3   1.0000     -10.093317      -274.6531
   4   1.0000     -10.093269      -274.6518
   5   1.0000     -10.092465      -274.6299
   6   1.0000     -10.091354      -274.5997
   7   1.0000     -10.076622      -274.1988
   8   1.0000     -10.070649      -274.0363
   9   1.0000     -10.063198      -273.8335
  10   1.0000     -10.041912      -273.2543
  11   1.0000      -1.076887       -29.3036
  12   1.0000      -0.868458       -23.6319
  13   1.0000      -0.809663       -22.0320
  14   1.0000      -0.762743       -20.7553
  15   1.0000      -0.756106       -20.5747
  16   1.0000      -0.695262       -18.9190
  17   1.0000      -0.679086       -18.4789
  18   1.0000      -0.608747       -16.5648
  19   1.0000      -0.602495       -16.3947
  20   1.0000      -0.548923       -14.9370
  21   1.0000      -0.524541       -14.2735
  22   1.0000      -0.491352       -13.3704
  23   1.0000      -0.482557       -13.1311
  24   1.0000      -0.463749       -12.6192
  25   1.0000      -0.462920       -12.5967
  26   1.0000      -0.431489       -11.7414
  27   1.0000      -0.417028       -11.3479
  28   1.0000      -0.406709       -11.0671
  29   1.0000      -0.395165       -10.7530
  30   1.0000      -0.391577       -10.6553
  31   1.0000      -0.383652       -10.4397
  32   1.0000      -0.369709       -10.0603
  33   1.0000      -0.355200        -9.6655
  34   1.0000      -0.344778        -9.3819
  35   1.0000      -0.341935        -9.3045
  36   1.0000      -0.323390        -8.7999
  37   1.0000      -0.311024        -8.4634
  38   1.0000      -0.248796        -6.7701
  39   1.0000      -0.247136        -6.7249
  40   0.0000      -0.108945        -2.9645
  41   0.0000      -0.061214        -1.6657
  42   0.0000      -0.011948        -0.3251
  43   0.0000       0.004633         0.1261
  44   0.0000       0.016243         0.4420

                 SPIN DOWN ORBITALS
  NO   OCC          E(Eh)            E(eV)
   0   1.0000     -19.032399      -517.8979
   1   1.0000     -10.146866      -276.1103
   2   1.0000     -10.098631      -274.7977
   3   1.0000     -10.093363      -274.6544
   4   1.0000     -10.088165      -274.5129
   5   1.0000     -10.087220      -274.4872
   6   1.0000     -10.084888      -274.4238
   7   1.0000     -10.075692      -274.1735
   8   1.0000     -10.073228      -274.1065
   9   1.0000     -10.063708      -273.8474
  10   1.0000     -10.041962      -273.2557
  11   1.0000      -1.073099       -29.2005
  12   1.0000      -0.861659       -23.4469
  13   1.0000      -0.801633       -21.8136
  14   1.0000      -0.760965       -20.7069
  15   1.0000      -0.746826       -20.3222
  16   1.0000      -0.687928       -18.7195
  17   1.0000      -0.676103       -18.3977
  18   1.0000      -0.606208       -16.4958
  19   1.0000      -0.597584       -16.2611
  20   1.0000      -0.545441       -14.8422
  21   1.0000      -0.522526       -14.2187
  22   1.0000      -0.489326       -13.3152
  23   1.0000      -0.479595       -13.0504
  24   1.0000      -0.460343       -12.5266
  25   1.0000      -0.457120       -12.4389
  26   1.0000      -0.430667       -11.7191
  27   1.0000      -0.416395       -11.3307
  28   1.0000      -0.396372       -10.7858
  29   1.0000      -0.393830       -10.7167
  30   1.0000      -0.381765       -10.3884
  31   1.0000      -0.381169       -10.3721
  32   1.0000      -0.368580       -10.0296
  33   1.0000      -0.354048        -9.6341
  34   1.0000      -0.340363        -9.2617
  35   1.0000      -0.333317        -9.0700
  36   1.0000      -0.321406        -8.7459
  37   1.0000      -0.297706        -8.1010
  38   1.0000      -0.238471        -6.4891
  39   0.0000      -0.206797        -5.6272
  40   0.0000      -0.081699        -2.2231
  41   0.0000      -0.052304        -1.4233
  42   0.0000       0.005411         0.1472
  43   0.0000       0.008264         0.2249

MULLIKEN ATOMIC CHARGES AND SPIN POPULATIONS
--------------------------------------------
   0 C :   -0.935777   -0.062495
   1 C :    0.864657    0.019024
   2 C :    0.022051    0.364957
   3 C :   -0.922926   -0.219075
   4 C :   -0.436745    0.368484
   5 C :    2.040975    0.070343
   6 C :   -0.149464    0.036337
   7 C :   -0.175729    0.211710
   8 C :   -0.723834   -0.025580
   9 H :    0.182424    0.026202
  10 H :    0.184084    0.025988
  11 H :    0.248284   -0.005109
  12 H :    0.120902    0.020306
  13 H :   -0.055909    0.010699
  14 H :    0.290327    0.043471
  15 H :    0.451930   -0.009774
  16 H :    0.313762    0.051151
  17 O :   -0.577721    0.081215
  18 C :   -0.610600   -0.007120
  19 H :    0.219000   -0.000628
  20 H :    0.270171    0.002397
  21 H :    0.269242    0.002413
  22 H :    0.110895   -0.004917
Sum of atomic charges         :    1.0000000

LOEWDIN ATOMIC CHARGES AND SPIN POPULATIONS
-------------------------------------------
   0 C :    0.255058   -0.000649
   1 C :   -0.342947    0.070660
   2 C :    0.290802    0.173277
   3 C :    0.271251    0.035668
   4 C :    0.290777    0.180648
   5 C :   -0.094370    0.081796
   6 C :    0.280370    0.079661
   7 C :    0.289090    0.137109
   8 C :    0.618927    0.046758
   9 H :   -0.147225    0.010922
  10 H :   -0.147366    0.010888
  11 H :   -0.162877    0.001089
  12 H :   -0.165794    0.022578
  13 H :   -0.160090    0.008227
  14 H :   -0.170132    0.038685
  15 H :   -0.154786   -0.012705
  16 H :   -0.169139    0.039174
  17 O :    0.639041    0.068016
  18 C :    0.426320    0.007272
  19 H :   -0.169045   -0.000342
  20 H :   -0.160800    0.002071
  21 H :   -0.160643    0.002068
  22 H :   -0.156419   -0.002870

  Mayer bond orders larger than 0.100000
B(  0-C ,  1-C ) :   0.5411 B(  0-C ,  4-C ) :  -0.2975 B(  0-C ,  6-C ) :  -0.2935
B(  0-C ,  7-C ) :   0.2061 B(  0-C , 17-O ) :   0.3341 B(  0-C , 22-H ) :   1.2143
B(  1-C ,  2-C ) :   0.9596 B(  1-C ,  4-C ) :  -0.2924 B(  1-C ,  6-C ) :   0.1544
B(  1-C ,  7-C ) :   0.1239 B(  1-C , 17-O ) :   0.1991 B(  1-C , 18-C ) :   0.1339
B(  1-C , 22-H ) :  -0.1105 B(  2-C ,  3-C ) :   0.9249 B(  2-C ,  5-C ) :  -0.1736
B(  2-C , 16-H ) :   0.8713 B(  2-C , 17-O ) :  -0.2068 B(  2-C , 18-C ) :  -0.1799
B(  3-C ,  4-C ) :   0.9253 B(  3-C ,  5-C ) :  -0.1939 B(  3-C ,  7-C ) :  -0.1068
B(  3-C , 14-H ) :  -0.1479 B(  3-C , 15-H ) :   0.5023 B(  4-C ,  5-C ) :   0.3251
B(  4-C , 14-H ) :   0.8962 B(  5-C ,  6-C ) :  -0.1033 B(  5-C ,  7-C ) :  -0.1458
B(  5-C ,  8-C ) :   0.1285 B(  5-C , 12-H ) :  -0.2712 B(  5-C , 13-H ) :  -0.1169
B(  5-C , 17-O ) :   0.1751 B(  5-C , 22-H ) :  -0.1101 B(  6-C ,  7-C ) :   0.7173
B(  6-C , 12-H ) :   0.1218 B(  6-C , 13-H ) :   1.3773 B(  7-C ,  8-C ) :   0.5627
B(  7-C , 12-H ) :   1.4150 B(  7-C , 13-H ) :  -0.1803 B(  8-C ,  9-H ) :   1.0305
B(  8-C , 10-H ) :   1.0284 B(  8-C , 11-H ) :   0.9526 B(  8-C , 12-H ) :  -0.1548
B( 16-H , 18-C ) :  -0.1484 B( 17-O , 18-C ) :   0.9356 B( 18-C , 19-H ) :   0.9890
B( 18-C , 20-H ) :   0.9155 B( 18-C , 21-H ) :   0.9163

Dispersion correction           -0.007027839
FINAL SINGLE POINT ENERGY      -463.202490147314

DIPOLE MOMENT
-------------

Method             : SCF
Type of density    : Electron Density
Multiplicity       :   2
Irrep              :   0
Energy             :  -463.1954623087877962 Eh
Relativity type    :
Basis              : AO
                                X                 Y                 Z
Electronic contribution:     -4.371135874      -0.617692027       0.016072176
Nuclear contribution   :      4.741902843      -0.263774749      -0.020573941
                        -----------------------------------------
Total Dipole Moment    :      0.370766969      -0.881466776      -0.004501765
                        -----------------------------------------
Magnitude (a.u.)       :      0.956280340
Magnitude (Debye)      :      2.430671455

VIBRATIONAL FREQUENCIES
-----------------------

Scaling factor for frequencies =  1.000000000  (already applied!)

     0:       0.00 cm**-1
     1:       0.00 cm**-1
     2:       0.00 cm**-1
     3:       0.00 cm**-1
     4:       0.00 cm**-1
     5:       0.00 cm**-1
     6:      11.89 cm**-1
     7:      81.84 cm**-1
     8:     107.23 cm**-1
     9:     130.45 cm**-1
    10:     166.87 cm**-1
    11:     168.91 cm**-1
    12:     219.09 cm**-1
    13:     256.32 cm**-1
    14:     260.80 cm**-1
    15:     335.82 cm**-1
    16:     367.40 cm**-1
    17:     405.01 cm**-1
    18:     445.57 cm**-1
    19:     556.23 cm**-1
    20:     586.87 cm**-1
    21:     601.64 cm**-1
    22:     622.74 cm**-1
    23:     756.69 cm**-1
    24:     777.59 cm**-1
    25:     811.11 cm**-1
    26:     876.66 cm**-1
    27:     881.83 cm**-1
    28:     895.96 cm**-1
    29:     945.36 cm**-1
    30:     952.48 cm**-1
    31:     986.59 cm**-1
    32:     990.12 cm**-1
    33:    1022.05 cm**-1
    34:    1023.17 cm**-1
    35:    1127.42 cm**-1
    36:    1147.16 cm**-1
    37:    1154.31 cm**-1
    38:    1162.60 cm**-1
    39:    1188.51 cm**-1
    40:    1224.87 cm**-1
    41:    1287.63 cm**-1
    42:    1312.41 cm**-1
    43:    1324.49 cm**-1
    44:    1340.82 cm**-1
    45:    1351.90 cm**-1
    46:    1409.57 cm**-1
    47:    1419.02 cm**-1
    48:    1433.31 cm**-1
    49:    1453.96 cm**-1
    50:    1465.93 cm**-1
    51:    1469.17 cm**-1
    52:    1479.06 cm**-1
    53:    1491.48 cm**-1
    54:    1529.31 cm**-1
    55:    1570.98 cm**-1
    56:    1609.34 cm**-1
    57:    3000.58 cm**-1
    58:    3043.44 cm**-1
    59:    3044.79 cm**-1
    60:    3128.35 cm**-1
    61:    3134.15 cm**-1
    62:    3147.10 cm**-1
    63:    3168.13 cm**-1
    64:    3174.88 cm**-1
    65:    3191.03 cm**-1
    66:    3200.77 cm**-1
    67:    3219.58 cm**-1
    68:    3223.48 cm**-1

IR SPECTRUM
-----------

 Mode   freq       eps      Int      T**2         TX        TY        TZ
       cm**-1   L/(mol*cm) km/mol    a.u.
----------------------------------------------------------------------------
  6:     11.89   0.000825    4.17  0.021653  (-0.001096 -0.000893 -0.147144)
  7:     81.84   0.000511    2.58  0.001949  ( 0.003860  0.000893  0.043971)
  8:    107.23   0.000046    0.23  0.000133  ( 0.004796  0.000391 -0.010471)
  9:    130.45   0.000268    1.36  0.000642  (-0.016986  0.018788 -0.000708)
 10:    166.87   0.000380    1.92  0.000710  ( 0.002421  0.000064  0.026533)
 11:    168.91   0.000637    3.22  0.001176  ( 0.000909 -0.000240  0.034286)
 12:    219.09   0.000189    0.96  0.000270  (-0.000719  0.000627  0.016389)
 13:    256.32   0.003519   17.78  0.004285  (-0.062875  0.018202  0.000131)
 14:    260.80   0.000016    0.08  0.000019  ( 0.003593 -0.001098  0.002205)
 15:    335.82   0.005408   27.33  0.005026  ( 0.070736  0.004713  0.000031)
 16:    367.40   0.001030    5.20  0.000875  (-0.026980 -0.012109 -0.000047)
 17:    405.01   0.000012    0.06  0.000009  (-0.000126  0.000036 -0.002975)
 18:    445.57   0.056917  287.64  0.039864  (-0.199463 -0.008845  0.000072)
 19:    556.23   0.043862  221.66  0.024608  (-0.156333  0.012942  0.000481)
 20:    586.87   0.000101    0.51  0.000054  (-0.002670 -0.000345 -0.006823)
 21:    601.64   0.011592   58.58  0.006013  ( 0.000968 -0.000213  0.077535)
 22:    622.74   0.002449   12.37  0.001227  (-0.035000  0.001225 -0.000711)
 23:    756.69   0.016893   85.37  0.006967  ( 0.079399  0.025740 -0.000428)
 24:    777.59   0.008026   40.56  0.003221  ( 0.001400  0.000465  0.056735)
 25:    811.11   0.001661    8.39  0.000639  (-0.001703 -0.000224  0.025222)
 26:    876.66   0.004793   24.22  0.001706  (-0.002620 -0.000900 -0.041211)
 27:    881.83   0.002347   11.86  0.000831  ( 0.010090  0.026976 -0.001046)
 28:    895.96   0.000203    1.03  0.000071  ( 0.002438  0.000634  0.008029)
 29:    945.36   0.111206  561.99  0.036709  (-0.191566 -0.002680  0.002083)
 30:    952.48   0.013237   66.90  0.004337  ( 0.003122 -0.000599  0.065779)
 31:    986.59   0.000637    3.22  0.000201  (-0.001897 -0.000175  0.014063)
 32:    990.12   0.020892  105.58  0.006585  (-0.081094 -0.002888  0.000245)
 33:   1022.05   0.000426    2.15  0.000130  ( 0.001550  0.000817 -0.011273)
 34:   1023.17   0.028577  144.41  0.008716  (-0.091723 -0.017386 -0.000727)
 35:   1127.42   0.006043   30.54  0.001673  ( 0.026905  0.030804  0.000151)
 36:   1147.16   0.114174  576.99  0.031059  ( 0.175975  0.009567 -0.000115)
 37:   1154.31   0.086119  435.21  0.023282  ( 0.152574 -0.001810  0.000127)
 38:   1162.60   0.000108    0.55  0.000029  (-0.003013 -0.000267  0.004455)
 39:   1188.51   0.010018   50.63  0.002630  (-0.051173  0.003417  0.000086)
 40:   1224.87   0.057250  289.32  0.014586  (-0.118964  0.020817 -0.000025)
 41:   1287.63   0.412734  2085.79  0.100028  ( 0.316271 -0.001121 -0.000225)
 42:   1312.41   0.023559  119.06  0.005602  ( 0.068362 -0.030470  0.000129)
 43:   1324.49   0.027592  139.44  0.006501  ( 0.080262  0.007677 -0.000065)
 44:   1340.82   0.053008  267.88  0.012337  (-0.110978  0.004582  0.000099)
 45:   1351.90   0.004341   21.94  0.001002  (-0.031580  0.002137 -0.000463)
 46:   1409.57   0.023190  117.19  0.005134  (-0.070685 -0.011734 -0.000051)
 47:   1419.02   0.004527   22.88  0.000996  ( 0.002457 -0.001349  0.031427)
 48:   1433.31   0.086522  437.25  0.018838  ( 0.134932 -0.025073 -0.001519)
 49:   1453.96   0.016502   83.39  0.003542  (-0.054820  0.023123  0.001397)
 50:   1465.93   0.002541   12.84  0.000541  (-0.020284  0.011332  0.001047)
 51:   1469.17   0.004738   23.94  0.001006  (-0.011188  0.003748 -0.029448)
 52:   1479.06   0.010423   52.67  0.002199  ( 0.039128 -0.025804 -0.001469)
 53:   1491.48   0.000147    0.74  0.000031  ( 0.003840 -0.003894 -0.000912)
 54:   1529.31   0.467423  2362.17  0.095380  (-0.308588 -0.012401  0.000253)
 55:   1570.98   0.073973  373.83  0.014694  ( 0.120225  0.015492 -0.000049)
 56:   1609.34   0.075254  380.30  0.014592  ( 0.109492  0.051029  0.000084)
 57:   3000.58   0.006727   34.00  0.000700  (-0.026034 -0.004678  0.000109)
 58:   3043.44   0.000194    0.98  0.000020  ( 0.000739  0.000100  0.004395)
 59:   3044.79   0.023260  117.55  0.002384  (-0.047977 -0.009067  0.000041)
 60:   3128.35   0.013997   70.73  0.001396  ( 0.031299  0.020411  0.000053)
 61:   3134.15   0.003306   16.71  0.000329  ( 0.000026  0.000125  0.018142)
 62:   3147.10   0.005423   27.41  0.000538  ( 0.021241  0.009303  0.000111)
 63:   3168.13   0.001948    9.84  0.000192  (-0.002883  0.013549 -0.000039)
 64:   3174.88   0.003160   15.97  0.000311  ( 0.012532 -0.012392 -0.000033)
 65:   3191.03   0.000308    1.56  0.000030  ( 0.005465 -0.000524 -0.000082)
 66:   3200.77   0.000918    4.64  0.000090  (-0.007254 -0.006075 -0.000006)
 67:   3219.58   0.000872    4.40  0.000084  (-0.007903  0.004691  0.000128)
 68:   3223.48   0.000079    0.40  0.000008  ( 0.001781  0.002116 -0.000022)

--------------------------
THERMOCHEMISTRY AT 298.15K
--------------------------

Temperature         ...   298.15 K
Pressure            ...     1.00 atm
Total Mass          ...   148.21 AMU
Quasi RRHO          ...     True
Cut-Off Frequency   ...     1.00 cm^-1

Throughout the following assumptions are being made:
  (1) The electronic state is orbitally nondegenerate
      but the spin degeneracy is treated
  (2) There are no thermally accessible electronically excited states
  (3) Hindered rotations indicated by low frequency modes are not
      treated as such but are treated as vibrations and this may
      cause some error
  (4) All equations used are the standard statistical mechanics
      equations for an ideal gas
  (5) All vibrations are strictly harmonic

freq.      11.89  E(vib)   ...       0.58
freq.      81.84  E(vib)   ...       0.48
freq.     107.23  E(vib)   ...       0.45
freq.     130.45  E(vib)   ...       0.43
freq.     166.87  E(vib)   ...       0.39
freq.     168.91  E(vib)   ...       0.38
freq.     219.09  E(vib)   ...       0.33
freq.     256.32  E(vib)   ...       0.30
freq.     260.80  E(vib)   ...       0.30
freq.     335.82  E(vib)   ...       0.24
freq.     367.40  E(vib)   ...       0.21
freq.     405.01  E(vib)   ...       0.19
freq.     445.57  E(vib)   ...       0.17
freq.     556.23  E(vib)   ...       0.12
freq.     586.87  E(vib)   ...       0.11
freq.     601.64  E(vib)   ...       0.10
freq.     622.74  E(vib)   ...       0.09
freq.     756.69  E(vib)   ...       0.06
freq.     777.59  E(vib)   ...       0.05
freq.     811.11  E(vib)   ...       0.05
freq.     876.66  E(vib)   ...       0.04
freq.     881.83  E(vib)   ...       0.04
freq.     895.96  E(vib)   ...       0.03
freq.     945.36  E(vib)   ...       0.03
freq.     952.48  E(vib)   ...       0.03
freq.     986.59  E(vib)   ...       0.02
freq.     990.12  E(vib)   ...       0.02
freq.    1022.05  E(vib)   ...       0.02
freq.    1023.17  E(vib)   ...       0.02
freq.    1127.42  E(vib)   ...       0.01
freq.    1147.16  E(vib)   ...       0.01
freq.    1154.31  E(vib)   ...       0.01
freq.    1162.60  E(vib)   ...       0.01
freq.    1188.51  E(vib)   ...       0.01
freq.    1224.87  E(vib)   ...       0.01
freq.    1287.63  E(vib)   ...       0.01
freq.    1312.41  E(vib)   ...       0.01
freq.    1324.49  E(vib)   ...       0.01
freq.    1340.82  E(vib)   ...       0.01
freq.    1351.90  E(vib)   ...       0.01
freq.    1409.57  E(vib)   ...       0.00
freq.    1419.02  E(vib)   ...       0.00
freq.    1433.31  E(vib)   ...       0.00
freq.    1453.96  E(vib)   ...       0.00
freq.    1465.93  E(vib)   ...       0.00
freq.    1469.17  E(vib)   ...       0.00
freq.    1479.06  E(vib)   ...       0.00
freq.    1491.48  E(vib)   ...       0.00
freq.    1529.31  E(vib)   ...       0.00
freq.    1570.98  E(vib)   ...       0.00
freq.    1609.34  E(vib)   ...       0.00
freq.    3000.58  E(vib)   ...       0.00
freq.    3043.44  E(vib)   ...       0.00
freq.    3044.79  E(vib)   ...       0.00
freq.    3128.35  E(vib)   ...       0.00
freq.    3134.15  E(vib)   ...       0.00
freq.    3147.10  E(vib)   ...       0.00
freq.    3168.13  E(vib)   ...       0.00
freq.    3174.88  E(vib)   ...       0.00
freq.    3191.03  E(vib)   ...       0.00
freq.    3200.77  E(vib)   ...       0.00
freq.    3219.58  E(vib)   ...       0.00
freq.    3223.48  E(vib)   ...       0.00

------------
INNER ENERGY
------------

The inner energy is: U= E(el) + E(ZPE) + E(vib) + E(rot) + E(trans)
    E(el)   - is the total energy from the electronic structure calculation
              = E(kin-el) + E(nuc-el) + E(el-el) + E(nuc-nuc)
    E(ZPE)  - the the zero temperature vibrational energy from the frequency calculation
    E(vib)  - the the finite temperature correction to E(ZPE) due to population
              of excited vibrational states
    E(rot)  - is the rotational thermal energy
    E(trans)- is the translational thermal energy

Summary of contributions to the inner energy U:
Electronic energy                ...   -463.20249015 Eh
Zero point energy                ...      0.19107863 Eh     119.90 kcal/mol
Thermal vibrational correction   ...      0.00862838 Eh       5.41 kcal/mol
Thermal rotational correction    ...      0.00141627 Eh       0.89 kcal/mol
Thermal translational correction ...      0.00141627 Eh       0.89 kcal/mol
-----------------------------------------------------------------------
Total thermal energy                   -462.99995060 Eh

Summary of corrections to the electronic energy:
(perhaps to be used in another calculation)
Total thermal correction                  0.01146092 Eh       7.19 kcal/mol
Non-thermal (ZPE) correction              0.19107863 Eh     119.90 kcal/mol
-----------------------------------------------------------------------
Total correction                          0.20253955 Eh     127.10 kcal/mol

--------
ENTHALPY
--------

The enthalpy is H = U + kB*T
                kB is Boltzmann's constant
Total thermal energy              ...   -462.99995060 Eh
Thermal Enthalpy correction       ...      0.00094421 Eh       0.59 kcal/mol
-----------------------------------------------------------------------
Total Enthalpy                    ...   -462.99900639 Eh

Note: Only C1 symmetry has been detected, increase convergence thresholds
      if your molecule has a higher symmetry. Symmetry factor of 1.0 is
      used for the rotational entropy correction.

Note: Rotational entropy computed according to Herzberg
Infrared and Raman Spectra, Chapter V,1, Van Nostrand Reinhold, 1945
Point Group:  C1, Symmetry Number:   1
Rotational constants in cm-1:     0.104893     0.017172     0.014838

Vibrational entropy computed according to the QRRHO of S. Grimme
Chem.Eur.J. 2012 18 9955 using a reference frequency of 100.0 cm-1

-------
ENTROPY
-------

The entropy contributions are T*S = T*(S(el)+S(vib)+S(rot)+S(trans))
     S(el)   - electronic entropy
     S(vib)  - vibrational entropy
     S(rot)  - rotational entropy
     S(trans)- translational entropy
The entropies will be listed as multiplied by the temperature to get
units of energy

Electronic entropy                ...      0.00065446 Eh      0.41 kcal/mol
Vibrational entropy               ...      0.01550916 Eh      9.73 kcal/mol
Rotational entropy                ...      0.01448183 Eh      9.09 kcal/mol
Translational entropy             ...      0.01942844 Eh     12.19 kcal/mol
-----------------------------------------------------------------------
Final entropy term                ...      0.05007388 Eh     31.42 kcal/mol

In case the symmetry of your molecule has not been determined correctly

                             ****ORCA TERMINATED NORMALLY****
TOTAL RUN TIME: 0 days 1 hours 20 minutes 38 seconds 295 msec
