                         Program Version 6.0.0  -   RELEASE  -
|  1> !TPSSh aug-cc-pVTZ d3 TightSCF SlowConv RIJCOSX defgrid2
|  2>
|  3> %pal
|  4> nprocs 4
|  5> end
|  6>
|  7> %scf
|  8> MaxIter 1500
|  9> end
| 10>
| 11> %maxcore 3000
| 12>
| 13> !CPCM
| 14> %cpcm smd true
| 15> SMDsolvent "MeCN"
| 16> surfacetype gepol_ses
| 17> rsolv 2.19
| 18> end
| 19>
| 20> * xyz 1 2
| 21>   C           0.32102019331516     -1.19542386061728     -0.14148513269053
| 22>   N           1.10243703742587      0.00016587284657     -0.03493498389965
| 23>   H           2.12790837562502      0.00032492444948     -0.06391998039902
| 24>   C           0.32776853288643      1.19559735299303      0.11419545489126
| 25>   C          -1.10184122089178      0.73960306514008     -0.17705770971163
| 26>   C          -1.09090160245375     -0.73957390726683      0.22597738884058
| 27>   H          -1.24513402062308     -0.85614376606510      1.31228662008834
| 28>   H          -1.86247558532270     -1.33277654839199     -0.28577641973945
| 29>   H          -1.84489899623950      1.33262955312356      0.37546884555940
| 30>   H          -1.31417979146215      0.85631071138639     -1.25352523011859
| 31>   H           0.74060448118867      2.00031005458115     -0.52340635871813
| 32>   H           0.46483350827758      1.54453868347447      1.16584085187759
| 33>   H           0.40187216908273     -1.54535148914433     -1.19859107684141
| 34>   H           0.76758011919150     -1.99962684650920      0.47372433086124
| 35> *
| 36>
| 37>                          ****END OF INPUT****

CARTESIAN COORDINATES (ANGSTROEM)
---------------------------------
  C      0.321020   -1.195424   -0.141485
  N      1.102437    0.000166   -0.034935
  H      2.127908    0.000325   -0.063920
  C      0.327769    1.195597    0.114195
  C     -1.101841    0.739603   -0.177058
  C     -1.090902   -0.739574    0.225977
  H     -1.245134   -0.856144    1.312287
  H     -1.862476   -1.332777   -0.285776
  H     -1.844899    1.332630    0.375469
  H     -1.314180    0.856311   -1.253525
  H      0.740604    2.000310   -0.523406
  H      0.464834    1.544539    1.165841
  H      0.401872   -1.545351   -1.198591
  H      0.767580   -1.999627    0.473724

 Total Charge           Charge          ....    1
 Multiplicity           Mult            ....    2
 Number of Electrons    NEL             ....   39
 Basis Dimension        Dim             ....  437

ORBITAL ENERGIES
----------------
                 SPIN UP ORBITALS
  NO   OCC          E(Eh)            E(eV)
   0   1.0000     -14.381562      -391.3422
   1   1.0000     -10.180237      -277.0183
   2   1.0000     -10.180138      -277.0156
   3   1.0000     -10.131391      -275.6892
   4   1.0000     -10.131221      -275.6846
   5   1.0000      -0.997434       -27.1416
   6   1.0000      -0.783412       -21.3177
   7   1.0000      -0.755709       -20.5639
   8   1.0000      -0.621294       -16.9063
   9   1.0000      -0.599622       -16.3165
  10   1.0000      -0.559319       -15.2198
  11   1.0000      -0.520869       -14.1736
  12   1.0000      -0.449453       -12.2302
  13   1.0000      -0.437386       -11.9019
  14   1.0000      -0.416224       -11.3260
  15   1.0000      -0.410201       -11.1621
  16   1.0000      -0.361359        -9.8331
  17   1.0000      -0.354203        -9.6384
  18   1.0000      -0.330157        -8.9840
  19   1.0000      -0.298378        -8.1193
  20   0.0000      -0.010621        -0.2890
  21   0.0000       0.009702         0.2640
  22   0.0000       0.010572         0.2877
  23   0.0000       0.013130         0.3573
  24   0.0000       0.030991         0.8433

                 SPIN DOWN ORBITALS
  NO   OCC          E(Eh)            E(eV)
   0   1.0000     -14.362528      -390.8242
   1   1.0000     -10.180674      -277.0302
   2   1.0000     -10.180572      -277.0275
   3   1.0000     -10.131285      -275.6863
   4   1.0000     -10.131115      -275.6816
   5   1.0000      -0.967243       -26.3200
   6   1.0000      -0.774760       -21.0823
   7   1.0000      -0.751916       -20.4607
   8   1.0000      -0.613030       -16.6814
   9   1.0000      -0.596895       -16.2423
  10   1.0000      -0.550009       -14.9665
  11   1.0000      -0.496797       -13.5185
  12   1.0000      -0.434654       -11.8275
  13   1.0000      -0.425876       -11.5887
  14   1.0000      -0.407607       -11.0915
  15   1.0000      -0.396673       -10.7940
  16   1.0000      -0.360356        -9.8058
  17   1.0000      -0.352911        -9.6032
  18   1.0000      -0.326424        -8.8824
  19   0.0000      -0.177887        -4.8406
  20   0.0000      -0.008820        -0.2400
  21   0.0000       0.011051         0.3007
  22   0.0000       0.011835         0.3221
  23   0.0000       0.014221         0.3870

MULLIKEN ATOMIC CHARGES AND SPIN POPULATIONS
--------------------------------------------
   0 C :    0.123098   -0.061268
   1 N :    0.041385    0.813458
   2 H :    0.082815   -0.012030
   3 C :    0.119615   -0.061474
   4 C :    0.030307    0.012735
   5 C :    0.026866    0.012502
   6 H :    0.036294    0.001240
   7 H :    0.059730   -0.002844
   8 H :    0.059593   -0.002850
   9 H :    0.036232    0.001240
  10 H :    0.112547    0.046542
  11 H :    0.079866    0.102977
  12 H :    0.079670    0.102918
  13 H :    0.111982    0.046854
Sum of atomic charges         :    1.0000000

LOEWDIN ATOMIC CHARGES AND SPIN POPULATIONS
-------------------------------------------
   0 C :    0.294420    0.123804
   1 N :    0.715321    0.529644
   2 H :   -0.137629    0.068600
   3 C :    0.294204    0.123685
   4 C :    0.330414    0.006638
   5 C :    0.330488    0.006585
   6 H :   -0.121708    0.001327
   7 H :   -0.120035   -0.000293
   8 H :   -0.120203   -0.000285
   9 H :   -0.121471    0.001335
  10 H :   -0.090462    0.024462
  11 H :   -0.081539    0.044941
  12 H :   -0.081323    0.044965
  13 H :   -0.090478    0.024591

  Mayer bond orders larger than 0.100000
B(  0-C ,  1-N ) :   0.9293 B(  0-C ,  5-C ) :   1.0106 B(  0-C , 12-H ) :   0.9013
B(  0-C , 13-H ) :   0.9305 B(  1-N ,  2-H ) :   1.0492 B(  1-N ,  3-C ) :   0.9281
B(  1-N , 11-H ) :   0.1165 B(  1-N , 12-H ) :   0.1168 B(  3-C ,  4-C ) :   1.0102
B(  3-C , 10-H ) :   0.9318 B(  3-C , 11-H ) :   0.9017 B(  4-C ,  5-C ) :   1.0394
B(  4-C ,  8-H ) :   0.9843 B(  4-C ,  9-H ) :   0.9596 B(  5-C ,  6-H ) :   0.9590
B(  5-C ,  7-H ) :   0.9852

Dispersion correction           -0.011801133
FINAL SINGLE POINT ENERGY      -212.508559553183

DIPOLE MOMENT
-------------

Method             : SCF
Type of density    : Electron Density
Multiplicity       :   2
Irrep              :   0
Energy             :  -212.4967584197614769 Eh
Relativity type    :
Basis              : AO
                                X                 Y                 Z
Electronic contribution:      2.506527088      -0.001097454      -0.071574876
Nuclear contribution   :     -1.068975804      -0.000388057       0.028795519
                        -----------------------------------------
Total Dipole Moment    :      1.437551284      -0.001485511      -0.042779357
                        -----------------------------------------
Magnitude (a.u.)       :      1.438188435
Magnitude (Debye)      :      3.655584488

Rotational constants in cm-1:             0.231930             0.228924             0.129807
Rotational constants in MHz :          6953.078056          6862.972212          3891.510295

                             ****ORCA TERMINATED NORMALLY****
TOTAL RUN TIME: 0 days 0 hours 2 minutes 44 seconds 603 msec
