                         Program Version 6.0.0  -   RELEASE  -
|  1> !PBE0 aug-cc-pVTZ d3 TightSCF SlowConv RIJCOSX defgrid2
|  2>
|  3> %pal
|  4> nprocs 4
|  5> end
|  6>
|  7> %scf
|  8> MaxIter 1500
|  9> end
| 10>
| 11> %maxcore 3000
| 12>
| 13> !CPCM
| 14> %cpcm smd true
| 15> SMDsolvent "MeCN"
| 16> surfacetype gepol_ses
| 17> rsolv 2.19
| 18> end
| 19>
| 20> * xyz 0 1
| 21> C           0.40935129847802      1.08899379791713      0.00000384882955
| 22> C          -0.95414231914494      1.32182421750193     -0.00005479572869
| 23> C          -1.86191827278499      0.25058964600211     -0.00004533890107
| 24> C          -1.36726530595103     -1.05641439163641      0.00003006046824
| 25> C           0.01094866022683     -1.27206289524966      0.00008922357585
| 26> C           0.93266713804439     -0.21888039966857      0.00007056076766
| 27> C           2.36684587509692     -0.51767487067035      0.00011575273336
| 28> C           3.38823314543713      0.35348849766597     -0.00001970079058
| 29> C           4.83064699015196     -0.03004243326080      0.00003449739731
| 30> H           5.35509581894080      0.37601378760975      0.88589322236429
| 31> H           5.35507929274862      0.37569721298307     -0.88597947614651
| 32> H           4.95899131799363     -1.12576664862183      0.00022846182052
| 33> H           3.17744825013090      1.43140986160214     -0.00019422021756
| 34> H           2.61115235789035     -1.58907062561958      0.00027211184136
| 35> H           0.38207444452641     -2.30220823516234      0.00014522513242
| 36> H          -2.04052486898389     -1.91563792247486      0.00004498692024
| 37> O          -3.17027495143014      0.57656429320608     -0.00011215197676
| 38> C          -4.11930600301544     -0.44976592613539     -0.00015689920679
| 39> H          -4.03333715560747     -1.08818765451818      0.90051262849554
| 40> H          -4.03319357489107     -1.08823722923544     -0.90077688540648
| 41> H          -5.10638730092634      0.03650069307204     -0.00024757936562
| 42> H          -1.35570411969921      2.33832899797413     -0.00010924060884
| 43> H           1.08732328276855      1.94703382671904     -0.00000059199744
| 44> *
| 45>
| 46>                          ****END OF INPUT****

CARTESIAN COORDINATES (ANGSTROEM)
---------------------------------
  C      0.409351    1.088994    0.000004
  C     -0.954142    1.321824   -0.000055
  C     -1.861918    0.250590   -0.000045
  C     -1.367265   -1.056414    0.000030
  C      0.010949   -1.272063    0.000089
  C      0.932667   -0.218880    0.000071
  C      2.366846   -0.517675    0.000116
  C      3.388233    0.353488   -0.000020
  C      4.830647   -0.030042    0.000034
  H      5.355096    0.376014    0.885893
  H      5.355079    0.375697   -0.885979
  H      4.958991   -1.125767    0.000228
  H      3.177448    1.431410   -0.000194
  H      2.611152   -1.589071    0.000272
  H      0.382074   -2.302208    0.000145
  H     -2.040525   -1.915638    0.000045
  O     -3.170275    0.576564   -0.000112
  C     -4.119306   -0.449766   -0.000157
  H     -4.033337   -1.088188    0.900513
  H     -4.033194   -1.088237   -0.900777
  H     -5.106387    0.036501   -0.000248
  H     -1.355704    2.338329   -0.000109
  H      1.087323    1.947034   -0.000001

 Total Charge           Charge          ....    0
 Multiplicity           Mult            ....    1
 Number of Electrons    NEL             ....   80
 Basis Dimension        Dim             ....  782

ORBITAL ENERGIES
----------------

  NO   OCC          E(Eh)            E(eV)
   0   2.0000     -19.245633      -523.7003
   1   2.0000     -10.291105      -280.0352
   2   2.0000     -10.266248      -279.3588
   3   2.0000     -10.235797      -278.5302
   4   2.0000     -10.232327      -278.4358
   5   2.0000     -10.231809      -278.4217
   6   2.0000     -10.228196      -278.3234
   7   2.0000     -10.228165      -278.3225
   8   2.0000     -10.227016      -278.2913
   9   2.0000     -10.224174      -278.2139
  10   2.0000     -10.215152      -277.9684
  11   2.0000      -1.108174       -30.1549
  12   2.0000      -0.886533       -24.1238
  13   2.0000      -0.822705       -22.3869
  14   2.0000      -0.781132       -21.2557
  15   2.0000      -0.770157       -20.9570
  16   2.0000      -0.727131       -19.7862
  17   2.0000      -0.683593       -18.6015
  18   2.0000      -0.631901       -17.1949
  19   2.0000      -0.610441       -16.6109
  20   2.0000      -0.563923       -15.3451
  21   2.0000      -0.549504       -14.9528
  22   2.0000      -0.503518       -13.7014
  23   2.0000      -0.497877       -13.5479
  24   2.0000      -0.484201       -13.1758
  25   2.0000      -0.457729       -12.4554
  26   2.0000      -0.438294       -11.9266
  27   2.0000      -0.431689       -11.7469
  28   2.0000      -0.418366       -11.3843
  29   2.0000      -0.415728       -11.3125
  30   2.0000      -0.408565       -11.1176
  31   2.0000      -0.397654       -10.8207
  32   2.0000      -0.373963       -10.1760
  33   2.0000      -0.362732        -9.8705
  34   2.0000      -0.351130        -9.5547
  35   2.0000      -0.348686        -9.4882
  36   2.0000      -0.334029        -9.0894
  37   2.0000      -0.286850        -7.8056
  38   2.0000      -0.271673        -7.3926
  39   2.0000      -0.216301        -5.8859
  40   0.0000      -0.028326        -0.7708
  41   0.0000      -0.012347        -0.3360
  42   0.0000       0.002287         0.0622
  43   0.0000       0.010085         0.2744
  44   0.0000       0.015156         0.4124

MULLIKEN ATOMIC CHARGES
-----------------------
   0 C :   -0.612616
   1 C :   -1.060748
   2 C :    1.034674
   3 C :   -0.596628
   4 C :   -0.922895
   5 C :    1.521770
   6 C :   -0.155060
   7 C :   -0.364025
   8 C :   -0.857878
   9 H :    0.223530
  10 H :    0.222925
  11 H :    0.284051
  12 H :    0.287676
  13 H :    0.159892
  14 H :    0.162006
  15 H :    0.567395
  16 O :   -0.670590
  17 C :   -0.759707
  18 H :    0.316962
  19 H :    0.317432
  20 H :    0.241286
  21 H :    0.612562
  22 H :    0.047988
Sum of atomic charges:    0.0000000

LOEWDIN ATOMIC CHARGES
----------------------
   0 C :    0.193925
   1 C :    0.201543
   2 C :   -0.409534
   3 C :    0.202801
   4 C :    0.192089
   5 C :   -0.160552
   6 C :    0.187663
   7 C :    0.188919
   8 C :    0.539800
   9 H :   -0.163554
  10 H :   -0.163524
  11 H :   -0.173119
  12 H :   -0.182626
  13 H :   -0.181826
  14 H :   -0.162664
  15 H :   -0.186026
  16 O :    0.592926
  17 C :    0.312200
  18 H :   -0.158565
  19 H :   -0.158595
  20 H :   -0.167483
  21 H :   -0.167400
  22 H :   -0.176399

  Mayer bond orders larger than 0.100000
B(  0-C ,  1-C ) :   1.0510 B(  0-C ,  2-C ) :  -0.3385 B(  0-C ,  3-C ) :  -0.3847
B(  0-C ,  4-C ) :  -0.6722 B(  0-C ,  5-C ) :   0.5261 B(  0-C ,  6-C ) :   0.3346
B(  0-C ,  7-C ) :   0.1222 B(  0-C , 15-H ) :   0.1082 B(  0-C , 21-H ) :   0.1451
B(  0-C , 22-H ) :   1.4896 B(  1-C ,  2-C ) :   0.9413 B(  1-C ,  3-C ) :   0.3258
B(  1-C ,  4-C ) :   0.1104 B(  1-C ,  5-C ) :   0.2251 B(  1-C , 16-O ) :   0.2985
B(  1-C , 21-H ) :   0.1149 B(  2-C ,  3-C ) :   1.1186 B(  2-C ,  4-C ) :  -0.3763
B(  2-C , 15-H ) :   0.1913 B(  2-C , 16-O ) :   0.3057 B(  2-C , 21-H ) :   0.1691
B(  3-C ,  4-C ) :   0.9792 B(  3-C ,  5-C ) :   0.2995 B(  3-C , 15-H ) :   0.1879
B(  4-C ,  5-C ) :   0.3131 B(  4-C , 14-H ) :   1.3877 B(  5-C ,  6-C ) :   0.1723
B(  5-C ,  7-C ) :  -0.2698 B(  5-C , 14-H ) :  -0.1209 B(  5-C , 22-H ) :  -0.1294
B(  6-C ,  7-C ) :   1.1640 B(  6-C , 13-H ) :   1.0729 B(  6-C , 14-H ) :  -0.1184
B(  7-C ,  8-C ) :   0.8124 B(  7-C , 12-H ) :   1.1068 B(  8-C ,  9-H ) :   0.9864
B(  8-C , 10-H ) :   0.9875 B(  8-C , 11-H ) :   0.8992 B(  8-C , 12-H ) :  -0.1046
B( 14-H , 22-H ) :   0.2309 B( 16-O , 17-C ) :   1.0652 B( 17-C , 18-H ) :   0.8726
B( 17-C , 19-H ) :   0.8719 B( 17-C , 20-H ) :   0.9858

Dispersion correction           -0.019889950
FINAL SINGLE POINT ENERGY      -463.130108155956

DIPOLE MOMENT
-------------

Method             : SCF
Type of density    : Electron Density
Multiplicity       :   1
Irrep              :   0
Energy             :  -463.1102182054562491 Eh
Relativity type    :
Basis              : AO
                                X                 Y                 Z
Electronic contribution:     -6.262096575       1.952356237      -0.000197060
Nuclear contribution   :      5.966707221      -2.452424409      -0.000108664
                        -----------------------------------------
Total Dipole Moment    :     -0.295389354      -0.500068172      -0.000305724
                        -----------------------------------------
Magnitude (a.u.)       :      0.580795266
Magnitude (Debye)      :      1.476264245

Rotational constants in cm-1:             0.150473             0.015230             0.013903
Rotational constants in MHz :          4511.057217           456.578337           416.814518

                             ****ORCA TERMINATED NORMALLY****
TOTAL RUN TIME: 0 days 0 hours 7 minutes 58 seconds 489 msec
