                         Program Version 6.0.0  -   RELEASE  -
|  1> !PBE0 aug-cc-pVTZ d3 TightSCF SlowConv RIJCOSX defgrid2
|  2>
|  3> %pal
|  4> nprocs 4
|  5> end
|  6>
|  7> %scf
|  8> MaxIter 1500
|  9> end
| 10>
| 11> %maxcore 3000
| 12>
| 13> !CPCM
| 14> %cpcm smd true
| 15> SMDsolvent "MeCN"
| 16> surfacetype gepol_ses
| 17> rsolv 2.19
| 18> end
| 19>
| 20> * xyz 0 1
| 21> N           0.15975924296332      0.12445058338132      0.31604288059979
| 22> C          -1.19113288858807     -0.03866597413313      0.81654672996346
| 23> C          -2.31404669003534     -0.01392479742617     -0.22115980972317
| 24> H          -3.29712795220661     -0.11050189519336      0.27216270478690
| 25> H          -2.22374427381768     -0.84298980217516     -0.94495572722258
| 26> H          -2.31766293194652      0.93130971057126     -0.79241152719390
| 27> H          -1.24118777155842     -0.98367549326804      1.38531777446702
| 28> H          -1.36414427314090      0.76090167006913      1.55962872548440
| 29> C           0.62547089775175     -0.92869162394065     -0.56188129632475
| 30> C           0.59510137492734     -2.31310993961179      0.06527507131526
| 31> H          -0.43217334595978     -2.68538495815961      0.21937250172711
| 32> H           1.11073003856311     -3.03735318800821     -0.58821336851619
| 33> H           1.10594756855008     -2.30061285180890      1.04369021631712
| 34> H           0.06636480368987     -0.94738167933480     -1.52902550894480
| 35> H           1.66989109901219     -0.69687695874228     -0.82974302531472
| 36> C           0.44663628376999      1.45259534411955     -0.18717965378079
| 37> C           1.91168679391593      1.84575888559843     -0.05684387193733
| 38> H           2.57178979071434      1.21847816004489     -0.68008856196741
| 39> H           2.23976832497324      1.74559120055302      0.99176343824238
| 40> H           2.05890339514312      2.89253491311342     -0.37523787624847
| 41> H           0.12405895964874      1.58040814853664     -1.24813910560320
| 42> H          -0.15649294636972      2.16687674581443      0.40066148987389
| 43> *
| 44>
| 45>                          ****END OF INPUT****

CARTESIAN COORDINATES (ANGSTROEM)
---------------------------------
  N      0.159759    0.124451    0.316043
  C     -1.191133   -0.038666    0.816547
  C     -2.314047   -0.013925   -0.221160
  H     -3.297128   -0.110502    0.272163
  H     -2.223744   -0.842990   -0.944956
  H     -2.317663    0.931310   -0.792412
  H     -1.241188   -0.983675    1.385318
  H     -1.364144    0.760902    1.559629
  C      0.625471   -0.928692   -0.561881
  C      0.595101   -2.313110    0.065275
  H     -0.432173   -2.685385    0.219373
  H      1.110730   -3.037353   -0.588213
  H      1.105948   -2.300613    1.043690
  H      0.066365   -0.947382   -1.529026
  H      1.669891   -0.696877   -0.829743
  C      0.446636    1.452595   -0.187180
  C      1.911687    1.845759   -0.056844
  H      2.571790    1.218478   -0.680089
  H      2.239768    1.745591    0.991763
  H      2.058903    2.892535   -0.375238
  H      0.124059    1.580408   -1.248139
  H     -0.156493    2.166877    0.400661

 Total Charge           Charge          ....    0
 Multiplicity           Mult            ....    1
 Number of Electrons    NEL             ....   58
 Basis Dimension        Dim             ....  667

ORBITAL ENERGIES
----------------

  NO   OCC          E(Eh)            E(eV)
   0   2.0000     -14.368716      -390.9926
   1   2.0000     -10.236993      -278.5628
   2   2.0000     -10.236299      -278.5439
   3   2.0000     -10.235922      -278.5336
   4   2.0000     -10.206030      -277.7202
   5   2.0000     -10.204926      -277.6902
   6   2.0000     -10.203664      -277.6558
   7   2.0000      -0.945955       -25.7407
   8   2.0000      -0.777115       -21.1464
   9   2.0000      -0.771571       -20.9955
  10   2.0000      -0.718731       -19.5577
  11   2.0000      -0.646356       -17.5882
  12   2.0000      -0.628948       -17.1145
  13   2.0000      -0.557378       -15.1670
  14   2.0000      -0.496903       -13.5214
  15   2.0000      -0.482998       -13.1431
  16   2.0000      -0.460093       -12.5198
  17   2.0000      -0.443025       -12.0553
  18   2.0000      -0.416910       -11.3447
  19   2.0000      -0.404673       -11.0117
  20   2.0000      -0.395384       -10.7589
  21   2.0000      -0.380034       -10.3412
  22   2.0000      -0.373251       -10.1567
  23   2.0000      -0.364821        -9.9273
  24   2.0000      -0.352116        -9.5816
  25   2.0000      -0.344301        -9.3689
  26   2.0000      -0.334690        -9.1074
  27   2.0000      -0.323399        -8.8001
  28   2.0000      -0.215160        -5.8548
  29   0.0000       0.003701         0.1007
  30   0.0000       0.014325         0.3898
  31   0.0000       0.015317         0.4168
  32   0.0000       0.018290         0.4977
  33   0.0000       0.036314         0.9882

MULLIKEN ATOMIC CHARGES
-----------------------
   0 N :   -0.088043
   1 C :   -0.282826
   2 C :   -0.790936
   3 H :    0.199316
   4 H :    0.261890
   5 H :    0.241186
   6 H :    0.142728
   7 H :    0.273232
   8 C :   -0.258778
   9 C :   -0.827877
  10 H :    0.314488
  11 H :    0.131893
  12 H :    0.242970
  13 H :    0.157706
  14 H :    0.349236
  15 C :   -0.382888
  16 C :   -0.878437
  17 H :    0.263540
  18 H :    0.217062
  19 H :    0.189620
  20 H :    0.205741
  21 H :    0.319176
Sum of atomic charges:    0.0000000

LOEWDIN ATOMIC CHARGES
----------------------
   0 N :    0.265977
   1 C :    0.121214
   2 C :    0.571809
   3 H :   -0.158940
   4 H :   -0.166566
   5 H :   -0.161181
   6 H :   -0.155785
   7 H :   -0.139466
   8 C :    0.105645
   9 C :    0.567425
  10 H :   -0.169483
  11 H :   -0.156724
  12 H :   -0.153313
  13 H :   -0.124979
  14 H :   -0.161216
  15 C :    0.103701
  16 C :    0.571812
  17 H :   -0.175320
  18 H :   -0.158605
  19 H :   -0.159655
  20 H :   -0.121876
  21 H :   -0.144474

  Mayer bond orders larger than 0.100000
B(  0-N ,  1-C ) :   0.9813 B(  0-N ,  8-C ) :   0.8103 B(  0-N , 15-C ) :   0.9849
B(  1-C ,  2-C ) :   0.8583 B(  1-C ,  6-H ) :   0.9775 B(  1-C ,  7-H ) :   0.8676
B(  2-C ,  3-H ) :   0.9737 B(  2-C ,  4-H ) :   0.9277 B(  2-C ,  5-H ) :   0.9425
B(  8-C ,  9-C ) :   0.8618 B(  8-C , 13-H ) :   0.9876 B(  8-C , 14-H ) :   0.8285
B(  8-C , 15-C ) :   0.1032 B(  9-C , 10-H ) :   0.8611 B(  9-C , 11-H ) :   1.0808
B(  9-C , 12-H ) :   0.9496 B( 15-C , 16-C ) :   0.8472 B( 15-C , 20-H ) :   0.9502
B( 15-C , 21-H ) :   0.8395 B( 16-C , 17-H ) :   0.9454 B( 16-C , 18-H ) :   0.9849
B( 16-C , 19-H ) :   1.0018

Dispersion correction           -0.016077663
FINAL SINGLE POINT ENERGY      -292.174244244897

DIPOLE MOMENT
-------------

Method             : SCF
Type of density    : Electron Density
Multiplicity       :   1
Irrep              :   0
Energy             :  -292.1581665820584703 Eh
Relativity type    :
Basis              : AO
                                X                 Y                 Z
Electronic contribution:      0.276389502       0.538346059       1.010192548
Nuclear contribution   :     -0.501506717      -0.494754897      -1.261304975
                        -----------------------------------------
Total Dipole Moment    :     -0.225117215       0.043591161      -0.251112427
                        -----------------------------------------
Magnitude (a.u.)       :      0.340052057
Magnitude (Debye)      :      0.864343637

Rotational constants in cm-1:             0.094674             0.067966             0.045296
Rotational constants in MHz :          2838.248460          2037.567031          1357.933108

                             ****ORCA TERMINATED NORMALLY****
TOTAL RUN TIME: 0 days 0 hours 5 minutes 7 seconds 920 msec
