                         Program Version 6.0.0  -   RELEASE  -
|  1> !TPSSh aug-cc-pVTZ d3 TightSCF SlowConv RIJCOSX defgrid2
|  2>
|  3> %pal
|  4> nprocs 4
|  5> end
|  6>
|  7> %scf
|  8> MaxIter 1500
|  9> end
| 10>
| 11> %maxcore 3000
| 12>
| 13> !CPCM
| 14> %cpcm smd true
| 15> SMDsolvent "MeCN"
| 16> surfacetype gepol_ses
| 17> rsolv 2.19
| 18> end
| 19>
| 20> * xyz 1 2
| 21> C           0.36827679708562      1.12909958561368      0.00001201858489
| 22> C           1.23021186730918     -0.05147463040440     -0.00001068145654
| 23> C           0.32335488869874     -1.13603513764026      0.00001262805170
| 24> N          -0.92044080134995     -0.70993319155687     -0.00001608440871
| 25> N          -0.85103182536878      0.66975840476644     -0.00001794399136
| 26> H          -1.72751346867464      1.19655640497152     -0.00003121087121
| 27> H           0.53889211956751     -2.20626533221750      0.00002437345705
| 28> H           2.32274963721698     -0.05868473826387     -0.00000548893473
| 29> H           0.61922738551534      2.19354113473125      0.00001908956891
| 30> *
| 31>
| 32>                          ****END OF INPUT****

CARTESIAN COORDINATES (ANGSTROEM)
---------------------------------
  C      0.368277    1.129100    0.000012
  C      1.230212   -0.051475   -0.000011
  C      0.323355   -1.136035    0.000013
  N     -0.920441   -0.709933   -0.000016
  N     -0.851032    0.669758   -0.000018
  H     -1.727513    1.196556   -0.000031
  H      0.538892   -2.206265    0.000024
  H      2.322750   -0.058685   -0.000005
  H      0.619227    2.193541    0.000019

 Total Charge           Charge          ....    1
 Multiplicity           Mult            ....    2
 Number of Electrons    NEL             ....   35
 Basis Dimension        Dim             ....  322

ORBITAL ENERGIES
----------------
                 SPIN UP ORBITALS
  NO   OCC          E(Eh)            E(eV)
   0   1.0000     -14.391812      -391.6211
   1   1.0000     -14.352371      -390.5479
   2   1.0000     -10.245856      -278.8039
   3   1.0000     -10.219925      -278.0983
   4   1.0000     -10.192807      -277.3604
   5   1.0000      -1.094481       -29.7824
   6   1.0000      -0.878728       -23.9114
   7   1.0000      -0.827222       -22.5098
   8   1.0000      -0.656954       -17.8766
   9   1.0000      -0.636011       -17.3067
  10   1.0000      -0.586927       -15.9711
  11   1.0000      -0.499957       -13.6045
  12   1.0000      -0.480215       -13.0673
  13   1.0000      -0.476555       -12.9677
  14   1.0000      -0.441351       -12.0098
  15   1.0000      -0.345452        -9.4002
  16   1.0000      -0.331827        -9.0295
  17   1.0000      -0.325800        -8.8655
  18   0.0000      -0.076342        -2.0774
  19   0.0000      -0.029308        -0.7975
  20   0.0000      -0.005754        -0.1566
  21   0.0000       0.013568         0.3692
  22   0.0000       0.016714         0.4548

                 SPIN DOWN ORBITALS
  NO   OCC          E(Eh)            E(eV)
   0   1.0000     -14.391441      -391.6110
   1   1.0000     -14.345349      -390.3568
   2   1.0000     -10.242316      -278.7076
   3   1.0000     -10.210357      -277.8379
   4   1.0000     -10.195280      -277.4277
   5   1.0000      -1.086307       -29.5599
   6   1.0000      -0.873545       -23.7704
   7   1.0000      -0.806469       -21.9451
   8   1.0000      -0.646549       -17.5935
   9   1.0000      -0.633859       -17.2482
  10   1.0000      -0.580576       -15.7983
  11   1.0000      -0.476942       -12.9782
  12   1.0000      -0.473607       -12.8875
  13   1.0000      -0.473139       -12.8748
  14   1.0000      -0.437303       -11.8996
  15   1.0000      -0.337935        -9.1957
  16   1.0000      -0.317733        -8.6460
  17   0.0000      -0.235246        -6.4014
  18   0.0000      -0.043706        -1.1893
  19   0.0000      -0.004458        -0.1213
  20   0.0000       0.003442         0.0937
  21   0.0000       0.014214         0.3868

MULLIKEN ATOMIC CHARGES AND SPIN POPULATIONS
--------------------------------------------
   0 C :   -0.150015    0.220428
   1 C :    0.072637    0.599491
   2 C :    0.035604   -0.123030
   3 N :   -0.698785    0.305469
   4 N :    0.400058    0.015626
   5 H :    0.156517    0.001698
   6 H :    0.419329    0.000569
   7 H :    0.330754   -0.014594
   8 H :    0.433901   -0.005656
Sum of atomic charges         :    1.0000000

LOEWDIN ATOMIC CHARGES AND SPIN POPULATIONS
-------------------------------------------
   0 C :    0.277200    0.208194
   1 C :    0.366674    0.339250
   2 C :    0.079351    0.069729
   3 N :    0.376293    0.209537
   4 N :    0.428768    0.090916
   5 H :   -0.173254    0.004090
   6 H :   -0.149535   -0.011951
   7 H :   -0.116675    0.065158
   8 H :   -0.088822    0.025077

  Mayer bond orders larger than 0.100000
B(  0-C ,  1-C ) :   0.9556 B(  0-C ,  4-N ) :   1.5929 B(  0-C ,  8-H ) :   0.7397
B(  1-C ,  2-C ) :   1.0418 B(  1-C ,  3-N ) :   0.1227 B(  1-C ,  7-H ) :   0.8920
B(  2-C ,  3-N ) :   1.3578 B(  2-C ,  6-H ) :   0.7715 B(  3-N ,  4-N ) :   0.1265
B(  4-N ,  5-H ) :   1.0564

Dispersion correction           -0.007535442
FINAL SINGLE POINT ENERGY      -226.079616459406

DIPOLE MOMENT
-------------

Method             : SCF
Type of density    : Electron Density
Multiplicity       :   2
Irrep              :   0
Energy             :  -226.0720810175193947 Eh
Relativity type    :
Basis              : AO
                                X                 Y                 Z
Electronic contribution:     -0.735298096       0.377028395       0.001015972
Nuclear contribution   :      1.633121789       1.062560564       0.000022858
                        -----------------------------------------
Total Dipole Moment    :      0.897823693       1.439588960       0.001038830
                        -----------------------------------------
Magnitude (a.u.)       :      1.696615701
Magnitude (Debye)      :      4.312454395

Rotational constants in cm-1:             0.324934             0.302591             0.156683
Rotational constants in MHz :          9741.285807          9071.463346          4697.225081

                             ****ORCA TERMINATED NORMALLY****
TOTAL RUN TIME: 0 days 0 hours 1 minutes 58 seconds 30 msec
