                         Program Version 6.0.0  -   RELEASE  -
|  1> !r2SCANh aug-cc-pVTZ d3 TightSCF SlowConv RIJCOSX defgrid2
|  2>
|  3> %pal
|  4> nprocs 4
|  5> end
|  6>
|  7> %scf
|  8> MaxIter 1500
|  9> end
| 10>
| 11> %maxcore 3000
| 12>
| 13> !CPCM
| 14> %cpcm smd true
| 15> SMDsolvent "MeCN"
| 16> surfacetype gepol_ses
| 17> rsolv 2.19
| 18> end
| 19>
| 20> * xyz 0 1
| 21> C          -0.09723520138673     -1.03437639103764      0.00347054225631
| 22> C          -1.47492894930884     -1.20047361725562      0.00696317861110
| 23> C          -2.34578623174672     -0.10040313113454      0.00646178626940
| 24> C          -1.77456389354337      1.17444029815347      0.00609068858276
| 25> C          -0.39219290951861      1.34431389323203      0.00262007400835
| 26> C           0.48066721969256      0.24734111354836      0.00061801253520
| 27> C           1.92745712323043      0.48416048286104     -0.00147397271183
| 28> C           2.90821751377421     -0.43224406598278     -0.00115903608211
| 29> C           4.36623513102305     -0.11505487673646     -0.00400250033420
| 30> H           4.87200794201926     -0.54390247209158      0.88189528271805
| 31> H           4.86926753302145     -0.54728733840504     -0.88981811387895
| 32> H           4.54542156577808      0.97343112133202     -0.00638255069427
| 33> H           2.64848728832259     -1.49940771664298      0.00136069468406
| 34> H           2.21863839458192      1.54365509753515     -0.00378021817366
| 35> H           0.02556550649537      2.35646498548500      0.00378810560732
| 36> H          -2.42480036039019      2.05550589684769      0.01005021755173
| 37> C          -3.83450513941386     -0.29675754696210     -0.01137750175061
| 38> H          -4.36818359568584      0.64375253893058      0.20246833077396
| 39> H          -4.17808733966479     -0.65741939040861     -0.99869388532750
| 40> H          -4.15169482101390     -1.04597884024218      0.73497377180135
| 41> H          -1.89116416828829     -2.21365122416981      0.01168808196327
| 42> H           0.54303149202221     -1.92102021685601      0.00533651159029
| 43> *
| 44>
| 45>                          ****END OF INPUT****

CARTESIAN COORDINATES (ANGSTROEM)
---------------------------------
  C     -0.097235   -1.034376    0.003471
  C     -1.474929   -1.200474    0.006963
  C     -2.345786   -0.100403    0.006462
  C     -1.774564    1.174440    0.006091
  C     -0.392193    1.344314    0.002620
  C      0.480667    0.247341    0.000618
  C      1.927457    0.484160   -0.001474
  C      2.908218   -0.432244   -0.001159
  C      4.366235   -0.115055   -0.004003
  H      4.872008   -0.543902    0.881895
  H      4.869268   -0.547287   -0.889818
  H      4.545422    0.973431   -0.006383
  H      2.648487   -1.499408    0.001361
  H      2.218638    1.543655   -0.003780
  H      0.025566    2.356465    0.003788
  H     -2.424800    2.055506    0.010050
  C     -3.834505   -0.296758   -0.011378
  H     -4.368184    0.643753    0.202468
  H     -4.178087   -0.657419   -0.998694
  H     -4.151695   -1.045979    0.734974
  H     -1.891164   -2.213651    0.011688
  H      0.543031   -1.921020    0.005337

 Total Charge           Charge          ....    0
 Multiplicity           Mult            ....    1
 Number of Electrons    NEL             ....   72
 Basis Dimension        Dim             ....  736

ORBITAL ENERGIES
----------------

  NO   OCC          E(Eh)            E(eV)
   0   2.0000     -10.169134      -276.7162
   1   2.0000     -10.168692      -276.7042
   2   2.0000     -10.159770      -276.4614
   3   2.0000     -10.158674      -276.4316
   4   2.0000     -10.157945      -276.4117
   5   2.0000     -10.156846      -276.3818
   6   2.0000     -10.156040      -276.3599
   7   2.0000     -10.155167      -276.3361
   8   2.0000     -10.147276      -276.1214
   9   2.0000     -10.146758      -276.1073
  10   2.0000      -0.862905       -23.4808
  11   2.0000      -0.803450       -21.8630
  12   2.0000      -0.762838       -20.7579
  13   2.0000      -0.742929       -20.2161
  14   2.0000      -0.701015       -19.0756
  15   2.0000      -0.652560       -17.7571
  16   2.0000      -0.604416       -16.4470
  17   2.0000      -0.578265       -15.7354
  18   2.0000      -0.539150       -14.6710
  19   2.0000      -0.492890       -13.4122
  20   2.0000      -0.457402       -12.4466
  21   2.0000      -0.442341       -12.0367
  22   2.0000      -0.418734       -11.3943
  23   2.0000      -0.406934       -11.0732
  24   2.0000      -0.402749       -10.9594
  25   2.0000      -0.398764       -10.8509
  26   2.0000      -0.397022       -10.8035
  27   2.0000      -0.364714        -9.9244
  28   2.0000      -0.362795        -9.8722
  29   2.0000      -0.360237        -9.8026
  30   2.0000      -0.337781        -9.1915
  31   2.0000      -0.326790        -8.8924
  32   2.0000      -0.315267        -8.5789
  33   2.0000      -0.283858        -7.7242
  34   2.0000      -0.252665        -6.8754
  35   2.0000      -0.211147        -5.7456
  36   0.0000      -0.048275        -1.3136
  37   0.0000      -0.025207        -0.6859
  38   0.0000       0.011249         0.3061
  39   0.0000       0.020929         0.5695
  40   0.0000       0.024458         0.6655

MULLIKEN ATOMIC CHARGES
-----------------------
   0 C :   -0.790857
   1 C :   -1.200889
   2 C :    1.621392
   3 C :   -0.917301
   4 C :   -1.082920
   5 C :    2.470254
   6 C :   -0.045517
   7 C :   -0.077977
   8 C :   -0.903204
   9 H :    0.168676
  10 H :    0.165260
  11 H :    0.261289
  12 H :    0.227390
  13 H :   -0.055238
  14 H :    0.067475
  15 H :    0.164559
  16 C :   -0.746602
  17 H :    0.184996
  18 H :    0.242684
  19 H :    0.201780
  20 H :    0.239382
  21 H :   -0.194634
Sum of atomic charges:   -0.0000000

LOEWDIN ATOMIC CHARGES
----------------------
   0 C :    0.205049
   1 C :    0.209571
   2 C :   -0.146535
   3 C :    0.208818
   4 C :    0.199335
   5 C :   -0.156702
   6 C :    0.194888
   7 C :    0.195812
   8 C :    0.549725
   9 H :   -0.164534
  10 H :   -0.164505
  11 H :   -0.174325
  12 H :   -0.184271
  13 H :   -0.184752
  14 H :   -0.168240
  15 H :   -0.167138
  16 C :    0.572784
  17 H :   -0.169523
  18 H :   -0.153113
  19 H :   -0.159765
  20 H :   -0.161311
  21 H :   -0.181269

  Mayer bond orders larger than 0.100000
B(  0-C ,  1-C ) :   0.9604 B(  0-C ,  2-C ) :   0.1194 B(  0-C ,  3-C ) :  -0.1103
B(  0-C ,  4-C ) :  -0.6672 B(  0-C ,  6-C ) :   0.2360 B(  0-C , 21-H ) :   1.8608
B(  1-C ,  2-C ) :   0.5797 B(  1-C ,  7-C ) :  -0.1331 B(  1-C , 14-H ) :  -0.1095
B(  1-C , 16-C ) :   0.1196 B(  1-C , 20-H ) :   0.9772 B(  1-C , 21-H ) :  -0.1455
B(  2-C ,  3-C ) :   0.4612 B(  2-C ,  6-C ) :   0.1239 B(  2-C ,  7-C ) :   0.1160
B(  2-C , 14-H ) :  -0.1399 B(  2-C , 16-C ) :   0.1667 B(  2-C , 21-H ) :  -0.1771
B(  3-C ,  4-C ) :   1.3598 B(  3-C ,  5-C ) :  -0.1062 B(  3-C ,  6-C ) :  -0.1228
B(  3-C , 15-H ) :   1.1233 B(  3-C , 16-C ) :  -0.1124 B(  3-C , 21-H ) :  -0.1090
B(  4-C ,  5-C ) :  -0.5133 B(  4-C ,  7-C ) :   0.1653 B(  4-C , 14-H ) :   1.5142
B(  5-C ,  7-C ) :  -0.1398 B(  5-C , 12-H ) :  -0.1057 B(  5-C , 14-H ) :  -0.2465
B(  5-C , 21-H ) :  -0.4093 B(  6-C ,  7-C ) :   0.9231 B(  6-C , 13-H ) :   1.3107
B(  6-C , 14-H ) :  -0.1157 B(  7-C ,  8-C ) :   0.5102 B(  7-C , 12-H ) :   1.2769
B(  7-C , 13-H ) :  -0.1648 B(  8-C ,  9-H ) :   1.0798 B(  8-C , 10-H ) :   1.0831
B(  8-C , 11-H ) :   0.9296 B(  8-C , 12-H ) :  -0.2153 B( 12-H , 21-H ) :  -0.1230
B( 14-H , 21-H ) :   0.1560 B( 16-C , 17-H ) :   1.0280 B( 16-C , 18-H ) :   0.9909
B( 16-C , 19-H ) :   1.0280

Dispersion correction           -0.006891984
FINAL SINGLE POINT ENERGY      -388.182839702274

DIPOLE MOMENT
-------------

Method             : SCF
Type of density    : Electron Density
Multiplicity       :   1
Irrep              :   0
Energy             :  -388.1759477181035436 Eh
Relativity type    :
Basis              : AO
                                X                 Y                 Z
Electronic contribution:     -2.547182960       0.658360252       0.030851880
Nuclear contribution   :      2.550584305      -0.802045271      -0.048555466
                        -----------------------------------------
Total Dipole Moment    :      0.003401345      -0.143685019      -0.017703586
                        -----------------------------------------
Magnitude (a.u.)       :      0.144811501
Magnitude (Debye)      :      0.368081583

Rotational constants in cm-1:             0.159882             0.020202             0.018058
Rotational constants in MHz :          4793.148645           605.632668           541.352924

                             ****ORCA TERMINATED NORMALLY****
TOTAL RUN TIME: 0 days 0 hours 7 minutes 46 seconds 524 msec
