                         Program Version 6.0.0  -   RELEASE  -
|  1> !r2SCANh aug-cc-pVTZ d3 TightSCF SlowConv RIJCOSX defgrid2
|  2>
|  3> %pal
|  4> nprocs 4
|  5> end
|  6>
|  7> %scf
|  8> MaxIter 1500
|  9> end
| 10>
| 11> %maxcore 3000
| 12>
| 13> !CPCM
| 14> %cpcm smd true
| 15> SMDsolvent "MeCN"
| 16> surfacetype gepol_ses
| 17> rsolv 2.19
| 18> end
| 19>
| 20> * xyz 1 2
| 21> C           0.40691282511463     -1.70325741551343      0.00016490908038
| 22> C          -0.96671189262499     -1.83667983985275      0.00018183586636
| 23> C          -1.68805707115252     -0.64261847572794      0.00008964722041
| 24> C          -1.04965590853916      0.63174029183313     -0.00002815696193
| 25> C           0.31128268883802      0.76926444998310     -0.00006174051828
| 26> C           1.07563281783288     -0.42742383238868      0.00003976058398
| 27> C           2.50697376337741     -0.44842167152090      0.00002305530846
| 28> C           3.33194801420144      0.64326709175403     -0.00015920562991
| 29> C           4.80599658250123      0.57741183606312     -0.00011946162688
| 30> H           5.18832353952918     -0.45487585344274     -0.00025429959810
| 31> H           5.21029428249422      1.11436451749660     -0.88040742471441
| 32> H           5.21019265645541      1.11403585874487      0.88042635965306
| 33> H           2.89207932946336      1.64904733647115     -0.00030687813280
| 34> H           2.97508026944189     -1.43956967985044      0.00016270833927
| 35> H           0.76741616602726      1.75937954473271     -0.00014274226054
| 36> O          -1.99397501474410      1.57230653765351     -0.00008671930137
| 37> C          -3.25136220491207      0.93015345618164     -0.00001294315373
| 38> H          -3.81339036666005      1.19156590903578     -0.91179779853392
| 39> H          -3.81336621741767      1.19172534012324      0.91174226589655
| 40> O          -2.99199983018881     -0.47270763267778      0.00010157254283
| 41> H          -1.46695007676095     -2.80656600519405      0.00027477962737
| 42> H           1.02699584772340     -2.60385336390417      0.00024457631318
| 43> *
| 44>
| 45>                          ****END OF INPUT****

CARTESIAN COORDINATES (ANGSTROEM)
---------------------------------
  C      0.406913   -1.703257    0.000165
  C     -0.966712   -1.836680    0.000182
  C     -1.688057   -0.642618    0.000090
  C     -1.049656    0.631740   -0.000028
  C      0.311283    0.769264   -0.000062
  C      1.075633   -0.427424    0.000040
  C      2.506974   -0.448422    0.000023
  C      3.331948    0.643267   -0.000159
  C      4.805997    0.577412   -0.000119
  H      5.188324   -0.454876   -0.000254
  H      5.210294    1.114365   -0.880407
  H      5.210193    1.114036    0.880426
  H      2.892079    1.649047   -0.000307
  H      2.975080   -1.439570    0.000163
  H      0.767416    1.759380   -0.000143
  O     -1.993975    1.572307   -0.000087
  C     -3.251362    0.930153   -0.000013
  H     -3.813390    1.191566   -0.911798
  H     -3.813366    1.191725    0.911742
  O     -2.992000   -0.472708    0.000102
  H     -1.466950   -2.806566    0.000275
  H      1.026996   -2.603853    0.000245

 Total Charge           Charge          ....    1
 Multiplicity           Mult            ....    2
 Number of Electrons    NEL             ....   85
 Basis Dimension        Dim             ....  782

ORBITAL ENERGIES
----------------
                 SPIN UP ORBITALS
  NO   OCC          E(Eh)            E(eV)
   0   1.0000     -19.231048      -523.3034
   1   1.0000     -19.215824      -522.8892
   2   1.0000     -10.302259      -280.3387
   3   1.0000     -10.286000      -279.8963
   4   1.0000     -10.272753      -279.5358
   5   1.0000     -10.228109      -278.3210
   6   1.0000     -10.212540      -277.8973
   7   1.0000     -10.209602      -277.8174
   8   1.0000     -10.201955      -277.6093
   9   1.0000     -10.196129      -277.4508
  10   1.0000     -10.191706      -277.3304
  11   1.0000     -10.162848      -276.5452
  12   1.0000      -1.203503       -32.7490
  13   1.0000      -1.110961       -30.2308
  14   1.0000      -0.909645       -24.7527
  15   1.0000      -0.842972       -22.9384
  16   1.0000      -0.802476       -21.8365
  17   1.0000      -0.792138       -21.5552
  18   1.0000      -0.731614       -19.9082
  19   1.0000      -0.694092       -18.8872
  20   1.0000      -0.664714       -18.0878
  21   1.0000      -0.656096       -17.8533
  22   1.0000      -0.585436       -15.9305
  23   1.0000      -0.560387       -15.2489
  24   1.0000      -0.558560       -15.1992
  25   1.0000      -0.547841       -14.9075
  26   1.0000      -0.519331       -14.1317
  27   1.0000      -0.475517       -12.9395
  28   1.0000      -0.466830       -12.7031
  29   1.0000      -0.458192       -12.4680
  30   1.0000      -0.438410       -11.9298
  31   1.0000      -0.432167       -11.7599
  32   1.0000      -0.426837       -11.6148
  33   1.0000      -0.418040       -11.3754
  34   1.0000      -0.417411       -11.3583
  35   1.0000      -0.415596       -11.3089
  36   1.0000      -0.382123       -10.3981
  37   1.0000      -0.371138       -10.0992
  38   1.0000      -0.371058       -10.0970
  39   1.0000      -0.357464        -9.7271
  40   1.0000      -0.307711        -8.3732
  41   1.0000      -0.269671        -7.3381
  42   1.0000      -0.238094        -6.4789
  43   0.0000      -0.093436        -2.5425
  44   0.0000      -0.053273        -1.4496
  45   0.0000       0.002066         0.0562
  46   0.0000       0.005495         0.1495
  47   0.0000       0.017840         0.4854

                 SPIN DOWN ORBITALS
  NO   OCC          E(Eh)            E(eV)
   0   1.0000     -19.225831      -523.1615
   1   1.0000     -19.213085      -522.8146
   2   1.0000     -10.302467      -280.3444
   3   1.0000     -10.281922      -279.7853
   4   1.0000     -10.271361      -279.4980
   5   1.0000     -10.224999      -278.2364
   6   1.0000     -10.209464      -277.8136
   7   1.0000     -10.203689      -277.6565
   8   1.0000     -10.202827      -277.6330
   9   1.0000     -10.197552      -277.4895
  10   1.0000     -10.192892      -277.3627
  11   1.0000     -10.163084      -276.5516
  12   1.0000      -1.197985       -32.5988
  13   1.0000      -1.104602       -30.0577
  14   1.0000      -0.903338       -24.5811
  15   1.0000      -0.835339       -22.7307
  16   1.0000      -0.798490       -21.7280
  17   1.0000      -0.785585       -21.3769
  18   1.0000      -0.731042       -19.8927
  19   1.0000      -0.687373       -18.7044
  20   1.0000      -0.661741       -18.0069
  21   1.0000      -0.651719       -17.7342
  22   1.0000      -0.580398       -15.7934
  23   1.0000      -0.558292       -15.1919
  24   1.0000      -0.547037       -14.8856
  25   1.0000      -0.545479       -14.8432
  26   1.0000      -0.516753       -14.0616
  27   1.0000      -0.473424       -12.8825
  28   1.0000      -0.466081       -12.6827
  29   1.0000      -0.455478       -12.3942
  30   1.0000      -0.424718       -11.5572
  31   1.0000      -0.420224       -11.4349
  32   1.0000      -0.417221       -11.3532
  33   1.0000      -0.415269       -11.3001
  34   1.0000      -0.412765       -11.2319
  35   1.0000      -0.407581       -11.0908
  36   1.0000      -0.380492       -10.3537
  37   1.0000      -0.369630       -10.0581
  38   1.0000      -0.355852        -9.6832
  39   1.0000      -0.354029        -9.6336
  40   1.0000      -0.295793        -8.0489
  41   1.0000      -0.259946        -7.0735
  42   0.0000      -0.182514        -4.9664
  43   0.0000      -0.065753        -1.7892
  44   0.0000      -0.037394        -1.0175
  45   0.0000       0.006339         0.1725
  46   0.0000       0.018582         0.5057

MULLIKEN ATOMIC CHARGES AND SPIN POPULATIONS
--------------------------------------------
   0 C :   -0.889278    0.126045
   1 C :   -0.598026   -0.087075
   2 C :    0.920536    0.226255
   3 C :    1.017894    0.122485
   4 C :   -0.522546   -0.117176
   5 C :    1.626448    0.232413
   6 C :   -0.279400   -0.081313
   7 C :   -0.028714    0.320889
   8 C :   -0.842478   -0.042363
   9 H :    0.253348   -0.006004
  10 H :    0.194990    0.030010
  11 H :    0.195529    0.030113
  12 H :    0.121140    0.020340
  13 H :    0.003616   -0.001764
  14 H :   -0.006612   -0.021970
  15 O :   -0.659437    0.074174
  16 C :   -0.110541   -0.043416
  17 H :    0.292994    0.020538
  18 H :    0.292336    0.020528
  19 O :   -0.658897    0.148511
  20 H :    0.567170   -0.001106
  21 H :    0.109926    0.029886
Sum of atomic charges         :    1.0000000

LOEWDIN ATOMIC CHARGES AND SPIN POPULATIONS
-------------------------------------------
   0 C :    0.265045    0.110872
   1 C :    0.293899    0.036500
   2 C :   -0.345956    0.137356
   3 C :   -0.344249    0.067362
   4 C :    0.281873   -0.008165
   5 C :   -0.096237    0.098965
   6 C :    0.257370    0.045339
   7 C :    0.269703    0.167874
   8 C :    0.595547    0.054054
   9 H :   -0.159669    0.000861
  10 H :   -0.146314    0.011883
  11 H :   -0.146297    0.011892
  12 H :   -0.156724    0.031607
  13 H :   -0.164919   -0.005377
  14 H :   -0.158499   -0.008210
  15 O :    0.657423    0.065270
  16 C :   -0.048924    0.020295
  17 H :   -0.118878    0.007899
  18 H :   -0.118880    0.007899
  19 O :    0.670424    0.130831
  20 H :   -0.141226   -0.003954
  21 H :   -0.144512    0.018947

  Mayer bond orders larger than 0.100000
B(  0-C ,  1-C ) :   1.3318 B(  0-C ,  2-C ) :  -0.2566 B(  0-C ,  3-C ) :  -0.2248
B(  0-C ,  4-C ) :  -0.1391 B(  0-C ,  5-C ) :   0.3234 B(  0-C ,  7-C ) :   0.2916
B(  0-C , 21-H ) :   1.2662 B(  1-C ,  2-C ) :   0.5814 B(  1-C ,  4-C ) :  -0.1685
B(  1-C ,  5-C ) :   0.1155 B(  1-C , 20-H ) :   0.3398 B(  1-C , 21-H ) :  -0.1072
B(  2-C ,  3-C ) :   1.1234 B(  2-C ,  4-C ) :  -0.1264 B(  2-C ,  5-C ) :  -0.1053
B(  2-C ,  6-C ) :   0.1914 B(  2-C , 19-O ) :   0.3916 B(  3-C ,  4-C ) :   0.4257
B(  3-C ,  5-C ) :   0.4465 B(  3-C ,  7-C ) :  -0.1057 B(  3-C , 14-H ) :  -0.1726
B(  3-C , 15-O ) :   0.1806 B(  4-C ,  5-C ) :   0.1667 B(  4-C ,  7-C ) :  -0.1425
B(  4-C , 12-H ) :  -0.1891 B(  4-C , 14-H ) :   1.3642 B(  4-C , 15-O ) :   0.2277
B(  5-C ,  7-C ) :  -0.1206 B(  5-C ,  8-C ) :   0.1148 B(  5-C , 12-H ) :  -0.2119
B(  5-C , 13-H ) :  -0.1189 B(  5-C , 14-H ) :  -0.2228 B(  5-C , 21-H ) :  -0.1024
B(  6-C ,  7-C ) :   0.6932 B(  6-C , 13-H ) :   1.3260 B(  7-C ,  8-C ) :   0.4924
B(  7-C , 12-H ) :   1.4316 B(  7-C , 13-H ) :  -0.1565 B(  8-C ,  9-H ) :   0.9543
B(  8-C , 10-H ) :   1.0401 B(  8-C , 11-H ) :   1.0395 B(  8-C , 12-H ) :  -0.1567
B( 15-O , 16-C ) :   0.8951 B( 15-O , 19-O ) :   0.1200 B( 16-C , 17-H ) :   0.8899
B( 16-C , 18-H ) :   0.8909 B( 16-C , 19-O ) :   0.8666

Dispersion correction           -0.007201546
FINAL SINGLE POINT ENERGY      -537.198329477756

DIPOLE MOMENT
-------------

Method             : SCF
Type of density    : Electron Density
Multiplicity       :   2
Irrep              :   0
Energy             :  -537.1911279319705272 Eh
Relativity type    :
Basis              : AO
                                X                 Y                 Z
Electronic contribution:    -13.035513178      -0.672320449      -0.000048902
Nuclear contribution   :     13.204705509       0.674639604      -0.000147023
                        -----------------------------------------
Total Dipole Moment    :      0.169192332       0.002319155      -0.000195925
                        -----------------------------------------
Magnitude (a.u.)       :      0.169208339
Magnitude (Debye)      :      0.430093417

Rotational constants in cm-1:             0.088323             0.016345             0.013866
Rotational constants in MHz :          2647.863415           489.996572           415.683402

                             ****ORCA TERMINATED NORMALLY****
TOTAL RUN TIME: 0 days 0 hours 14 minutes 45 seconds 279 msec
