                         Program Version 6.0.0  -   RELEASE  -
|  1> !PBE0 aug-cc-pVTZ d3 TightSCF SlowConv RIJCOSX defgrid2
|  2>
|  3> %pal
|  4> nprocs 15
|  5> end
|  6>
|  7> %scf
|  8> MaxIter 1500
|  9> end
| 10>
| 11> %maxcore 3500
| 12>
| 13> !CPCM
| 14> %cpcm smd true
| 15> SMDsolvent "WATER"
| 16> surfacetype gepol_ses
| 17> rsolv 1.40
| 18> end
| 19>
| 20> * xyz -1 2
| 21> C          -0.01873170749674      0.04093753406553     -3.52858975972066
| 22> C          -0.08481953761759     -0.05154774136999      0.71463088236912
| 23> C           1.06074238697258      0.22514736046509      1.53440757464188
| 24> C           0.96830356526862      0.17882896728935      2.90786805737149
| 25> C          -0.26470551878929     -0.14423885396115      3.51526371962268
| 26> C          -1.33128436816010     -0.40174847455106      2.63782787275971
| 27> N          -1.27485689979469     -0.36556245628455      1.32561828552698
| 28> H           2.02142786234163      0.47540072062604      1.07674146761929
| 29> H           1.85377788752582      0.39275930361097      3.52001278224486
| 30> H          -0.39061214364026     -0.19370360376422      4.60098661165976
| 31> H          -2.31725327762224     -0.66048458620174      3.06445837201647
| 32> C          -0.03491140317629     -0.01288869194778     -0.72111388392229
| 33> C           1.16270029754736      0.31139406157834     -1.44337296366598
| 34> C           1.16651016564823      0.33657884142632     -2.82048186671520
| 35> C          -1.14232412396102     -0.26425404984996     -2.74235450381628
| 36> N          -1.17775822889852     -0.29650902231833     -1.42933091490151
| 37> H           2.08677406925420      0.54347018773518     -0.90745689096374
| 38> H           2.09048709414386      0.58686162656875     -3.35729468270631
| 39> H          -0.06814499795324      0.04684125814958     -4.62156621654479
| 40> H          -2.09470004459233     -0.50226242026639     -3.24971132087547
| 41> *
| 42>
| 43>                          ****END OF INPUT****

CARTESIAN COORDINATES (ANGSTROEM)
---------------------------------
  C     -0.018732    0.040938   -3.528590
  C     -0.084820   -0.051548    0.714631
  C      1.060742    0.225147    1.534408
  C      0.968304    0.178829    2.907868
  C     -0.264706   -0.144239    3.515264
  C     -1.331284   -0.401748    2.637828
  N     -1.274857   -0.365562    1.325618
  H      2.021428    0.475401    1.076741
  H      1.853778    0.392759    3.520013
  H     -0.390612   -0.193704    4.600987
  H     -2.317253   -0.660485    3.064458
  C     -0.034911   -0.012889   -0.721114
  C      1.162700    0.311394   -1.443373
  C      1.166510    0.336579   -2.820482
  C     -1.142324   -0.264254   -2.742355
  N     -1.177758   -0.296509   -1.429331
  H      2.086774    0.543470   -0.907457
  H      2.090487    0.586862   -3.357295
  H     -0.068145    0.046841   -4.621566
  H     -2.094700   -0.502262   -3.249711

 Total Charge           Charge          ....   -1
 Multiplicity           Mult            ....    2
 Number of Electrons    NEL             ....   83
 Basis Dimension        Dim             ....  736

ORBITAL ENERGIES
----------------
                 SPIN UP ORBITALS
  NO   OCC          E(Eh)            E(eV)
   0   1.0000     -14.353246      -390.5717
   1   1.0000     -14.353209      -390.5707
   2   1.0000     -10.239683      -278.6359
   3   1.0000     -10.239671      -278.6356
   4   1.0000     -10.235920      -278.5335
   5   1.0000     -10.235424      -278.5201
   6   1.0000     -10.220364      -278.1102
   7   1.0000     -10.220346      -278.1098
   8   1.0000     -10.212289      -277.8905
   9   1.0000     -10.212269      -277.8900
  10   1.0000     -10.203674      -277.6561
  11   1.0000     -10.203656      -277.6556
  12   1.0000      -0.954019       -25.9602
  13   1.0000      -0.933092       -25.3907
  14   1.0000      -0.805142       -21.9090
  15   1.0000      -0.798555       -21.7298
  16   1.0000      -0.791211       -21.5299
  17   1.0000      -0.733733       -19.9659
  18   1.0000      -0.657024       -17.8785
  19   1.0000      -0.631689       -17.1891
  20   1.0000      -0.602120       -16.3845
  21   1.0000      -0.592468       -16.1219
  22   1.0000      -0.528185       -14.3726
  23   1.0000      -0.488993       -13.3062
  24   1.0000      -0.485881       -13.2215
  25   1.0000      -0.473151       -12.8751
  26   1.0000      -0.446476       -12.1492
  27   1.0000      -0.427283       -11.6270
  28   1.0000      -0.419667       -11.4197
  29   1.0000      -0.416004       -11.3200
  30   1.0000      -0.390794       -10.6340
  31   1.0000      -0.388501       -10.5716
  32   1.0000      -0.385974       -10.5029
  33   1.0000      -0.354453        -9.6451
  34   1.0000      -0.351918        -9.5762
  35   1.0000      -0.300155        -8.1676
  36   1.0000      -0.288982        -7.8636
  37   1.0000      -0.286857        -7.8058
  38   1.0000      -0.260965        -7.1012
  39   1.0000      -0.237464        -6.4617
  40   1.0000      -0.231158        -6.2901
  41   1.0000      -0.105848        -2.8803
  42   0.0000      -0.012298        -0.3346
  43   0.0000       0.000822         0.0224
  44   0.0000       0.004093         0.1114
  45   0.0000       0.010979         0.2988
  46   0.0000       0.016595         0.4516

                 SPIN DOWN ORBITALS
  NO   OCC          E(Eh)            E(eV)
   0   1.0000     -14.350107      -390.4863
   1   1.0000     -14.350070      -390.4852
   2   1.0000     -10.240932      -278.6699
   3   1.0000     -10.240920      -278.6696
   4   1.0000     -10.233659      -278.4720
   5   1.0000     -10.233193      -278.4593
   6   1.0000     -10.220387      -278.1109
   7   1.0000     -10.220370      -278.1104
   8   1.0000     -10.211297      -277.8635
   9   1.0000     -10.211276      -277.8629
  10   1.0000     -10.200260      -277.5632
  11   1.0000     -10.200242      -277.5627
  12   1.0000      -0.948414       -25.8077
  13   1.0000      -0.928336       -25.2613
  14   1.0000      -0.800642       -21.7866
  15   1.0000      -0.793910       -21.6034
  16   1.0000      -0.785156       -21.3652
  17   1.0000      -0.729577       -19.8528
  18   1.0000      -0.648120       -17.6362
  19   1.0000      -0.631246       -17.1771
  20   1.0000      -0.600211       -16.3326
  21   1.0000      -0.589482       -16.0406
  22   1.0000      -0.526932       -14.3386
  23   1.0000      -0.487246       -13.2586
  24   1.0000      -0.483709       -13.1624
  25   1.0000      -0.469609       -12.7787
  26   1.0000      -0.444840       -12.1047
  27   1.0000      -0.425845       -11.5878
  28   1.0000      -0.414733       -11.2855
  29   1.0000      -0.404897       -11.0178
  30   1.0000      -0.389622       -10.6022
  31   1.0000      -0.387289       -10.5387
  32   1.0000      -0.375176       -10.2091
  33   1.0000      -0.353152        -9.6098
  34   1.0000      -0.349806        -9.5187
  35   1.0000      -0.281901        -7.6709
  36   1.0000      -0.275232        -7.4894
  37   1.0000      -0.274032        -7.4568
  38   1.0000      -0.257405        -7.0043
  39   1.0000      -0.233863        -6.3637
  40   1.0000      -0.212357        -5.7785
  41   0.0000      -0.034332        -0.9342
  42   0.0000      -0.010360        -0.2819
  43   0.0000       0.002532         0.0689
  44   0.0000       0.010261         0.2792
  45   0.0000       0.012533         0.3410

MULLIKEN ATOMIC CHARGES AND SPIN POPULATIONS
--------------------------------------------
   0 C :   -0.434421    0.231302
   1 C :    1.391990    0.133286
   2 C :   -0.644165    0.088701
   3 C :   -0.890035   -0.015108
   4 C :   -0.435189    0.231209
   5 C :   -0.746316   -0.061114
   6 N :   -0.728945    0.143148
   7 H :    0.098643   -0.011244
   8 H :    0.598017   -0.002325
   9 H :    0.291717   -0.016382
  10 H :    0.554366    0.009782
  11 C :    1.415037    0.133461
  12 C :   -0.638522    0.088674
  13 C :   -0.879076   -0.015007
  14 C :   -0.743415   -0.061356
  15 N :   -0.733023    0.143115
  16 H :    0.103715   -0.011472
  17 H :    0.575122   -0.002211
  18 H :    0.295499   -0.016265
  19 H :    0.549000    0.009806
Sum of atomic charges         :   -1.0000000

LOEWDIN ATOMIC CHARGES AND SPIN POPULATIONS
-------------------------------------------
   0 C :    0.145032    0.110232
   1 C :   -0.365936    0.120288
   2 C :    0.162443    0.061768
   3 C :    0.130504    0.047207
   4 C :    0.144976    0.110251
   5 C :   -0.090559    0.018363
   6 N :    0.306804    0.104287
   7 H :   -0.209935    0.010309
   8 H :   -0.176783    0.003603
   9 H :   -0.202977    0.028904
  10 H :   -0.198595   -0.004952
  11 C :   -0.365877    0.120286
  12 C :    0.162420    0.061766
  13 C :    0.130576    0.047170
  14 C :   -0.090631    0.018374
  15 N :    0.306857    0.104276
  16 H :   -0.209968    0.010316
  17 H :   -0.176745    0.003594
  18 H :   -0.202979    0.028904
  19 H :   -0.198626   -0.004949

  Mayer bond orders larger than 0.100000
B(  0-C , 13-C ) :   1.2347 B(  0-C , 14-C ) :   0.8759 B(  0-C , 15-N ) :  -0.1577
B(  0-C , 18-H ) :   0.9467 B(  1-C ,  2-C ) :   0.5435 B(  1-C ,  3-C ) :  -0.2316
B(  1-C ,  5-C ) :  -0.1909 B(  1-C ,  6-N ) :  -0.1994 B(  1-C ,  7-H ) :  -0.1338
B(  1-C , 11-C ) :   0.5258 B(  1-C , 13-C ) :   0.1296 B(  1-C , 15-N ) :   0.3302
B(  2-C ,  3-C ) :   1.4298 B(  2-C ,  5-C ) :  -0.1580 B(  2-C ,  7-H ) :   1.4815
B(  2-C , 12-C ) :  -0.1761 B(  2-C , 16-H ) :  -0.1302 B(  3-C ,  4-C ) :   1.2318
B(  3-C ,  5-C ) :   0.3531 B(  3-C ,  6-N ) :   0.1099 B(  3-C ,  7-H ) :  -0.2543
B(  3-C ,  8-H ) :   0.4633 B(  3-C , 11-C ) :   0.1234 B(  4-C ,  5-C ) :   0.8748
B(  4-C ,  6-N ) :  -0.1621 B(  4-C ,  9-H ) :   0.9491 B(  5-C ,  6-N ) :   1.7502
B(  5-C , 10-H ) :   0.4462 B(  6-N , 11-C ) :   0.3167 B(  6-N , 15-N ) :  -0.2982
B(  7-H ,  9-H ) :   0.1562 B(  7-H , 12-C ) :  -0.1277 B( 11-C , 12-C ) :   0.5355
B( 11-C , 13-C ) :  -0.2334 B( 11-C , 14-C ) :  -0.1911 B( 11-C , 15-N ) :  -0.2199
B( 11-C , 16-H ) :  -0.1367 B( 12-C , 13-C ) :   1.4134 B( 12-C , 14-C ) :  -0.1475
B( 12-C , 16-H ) :   1.4792 B( 13-C , 14-C ) :   0.3454 B( 13-C , 16-H ) :  -0.2621
B( 13-C , 17-H ) :   0.4961 B( 14-C , 15-N ) :   1.7433 B( 14-C , 19-H ) :   0.4542
B( 16-H , 18-H ) :   0.1512

Dispersion correction           -0.020502527
FINAL SINGLE POINT ENERGY      -495.072830862254

DIPOLE MOMENT
-------------

Method             : SCF
Type of density    : Electron Density
Multiplicity       :   2
Irrep              :   0
Energy             :  -495.0523283352675321 Eh
Relativity type    :
Basis              : AO
                                X                 Y                 Z
Electronic contribution:     -1.731849407      -0.445635311      -0.072282078
Nuclear contribution   :      3.614122503       0.929387637       0.150326208
                        -----------------------------------------
Total Dipole Moment    :      1.882273096       0.483752326       0.078044130
                        -----------------------------------------
Magnitude (a.u.)       :      1.945008793
Magnitude (Debye)      :      4.943819461

Rotational constants in cm-1:             0.097712             0.019197             0.016045
Rotational constants in MHz :          2929.325358           575.521768           481.017920

                             ****ORCA TERMINATED NORMALLY****
TOTAL RUN TIME: 0 days 0 hours 22 minutes 5 seconds 270 msec
