                         Program Version 6.0.0  -   RELEASE  -
|  1> !PBE0 freq def2-SV(p) d3 TightSCF SlowConv RIJCOSX defgrid2
|  2>
|  3> %pal
|  4> nprocs 12
|  5> end
|  6>
|  7> %scf
|  8> MaxIter 1500
|  9> end
| 10>
| 11> %maxcore 5000
| 12>
| 13> !CPCM
| 14> %cpcm smd true
| 15> SMDsolvent "MeCN"
| 16> surfacetype gepol_ses
| 17> rsolv 2.19
| 18> end
| 19>
| 20> * xyz 0 1
| 21> C           0.89710837114459     -1.41780910968001     -0.00029656411824
| 22> C           2.11686226499054     -0.74531806488433     -0.00001363647628
| 23> C           2.17656404178783      0.66142584795848     -0.00009204222408
| 24> C           1.02071281343100      1.43533813020912     -0.00034565296594
| 25> C          -0.22053653514228      0.78000832516793     -0.00052659189946
| 26> C          -0.24700051420346     -0.62734095682228     -0.00058095857523
| 27> O          -1.52619130367969     -1.07030225602950     -0.00042414810992
| 28> C          -2.32059385176345      0.03048533885779     -0.00006728553151
| 29> C          -1.60371051799133      1.18362694978823     -0.00021825656956
| 30> H          -2.00433238620486      2.19667005491330      0.00071768811007
| 31> H          -3.39215500169937     -0.16718704474789      0.00091120405305
| 32> H           1.07746845133293      2.52768444515191     -0.00031259484933
| 33> H           3.15426982079779      1.15265583228468      0.00044878766508
| 34> H           3.04654156304627     -1.32222420684599      0.00088937191503
| 35> H           0.83404288415352     -2.50873698532142     -0.00000452042370
| 36> *
| 37>
| 38>                          ****END OF INPUT****

CARTESIAN COORDINATES (ANGSTROEM)
---------------------------------
  C      0.897108   -1.417809   -0.000297
  C      2.116862   -0.745318   -0.000014
  C      2.176564    0.661426   -0.000092
  C      1.020713    1.435338   -0.000346
  C     -0.220537    0.780008   -0.000527
  C     -0.247001   -0.627341   -0.000581
  O     -1.526191   -1.070302   -0.000424
  C     -2.320594    0.030485   -0.000067
  C     -1.603711    1.183627   -0.000218
  H     -2.004332    2.196670    0.000718
  H     -3.392155   -0.167187    0.000911
  H      1.077468    2.527684   -0.000313
  H      3.154270    1.152656    0.000449
  H      3.046542   -1.322224    0.000889
  H      0.834043   -2.508737   -0.000005

 Total Charge           Charge          ....    0
 Multiplicity           Mult            ....    1
 Number of Electrons    NEL             ....   62
 Basis Dimension        Dim             ....  138

ORBITAL ENERGIES
----------------

  NO   OCC          E(Eh)            E(eV)
   0   2.0000     -19.282336      -524.6990
   1   2.0000     -10.292746      -280.0799
   2   2.0000     -10.289910      -280.0027
   3   2.0000     -10.246188      -278.8129
   4   2.0000     -10.241853      -278.6950
   5   2.0000     -10.240609      -278.6611
   6   2.0000     -10.238546      -278.6050
   7   2.0000     -10.235270      -278.5158
   8   2.0000     -10.235214      -278.5143
   9   2.0000      -1.143568       -31.1181
  10   2.0000      -0.879782       -23.9401
  11   2.0000      -0.820443       -22.3254
  12   2.0000      -0.769684       -20.9442
  13   2.0000      -0.747160       -20.3313
  14   2.0000      -0.653449       -17.7813
  15   2.0000      -0.618876       -16.8405
  16   2.0000      -0.599365       -16.3096
  17   2.0000      -0.538471       -14.6525
  18   2.0000      -0.509928       -13.8758
  19   2.0000      -0.493628       -13.4323
  20   2.0000      -0.486151       -13.2289
  21   2.0000      -0.453411       -12.3379
  22   2.0000      -0.440529       -11.9874
  23   2.0000      -0.422277       -11.4907
  24   2.0000      -0.404005       -10.9935
  25   2.0000      -0.379006       -10.3133
  26   2.0000      -0.375294       -10.2123
  27   2.0000      -0.353395        -9.6164
  28   2.0000      -0.314898        -8.5688
  29   2.0000      -0.258630        -7.0377
  30   2.0000      -0.239467        -6.5162
  31   0.0000      -0.023228        -0.6321
  32   0.0000       0.008877         0.2415
  33   0.0000       0.054592         1.4855
  34   0.0000       0.088047         2.3959
  35   0.0000       0.113929         3.1002

MULLIKEN ATOMIC CHARGES
-----------------------
   0 C :   -0.189766
   1 C :   -0.139816
   2 C :   -0.121635
   3 C :   -0.183329
   4 C :    0.043809
   5 C :    0.189408
   6 O :   -0.250673
   7 C :    0.054082
   8 C :   -0.191419
   9 H :    0.134704
  10 H :    0.159114
  11 H :    0.118729
  12 H :    0.124279
  13 H :    0.130186
  14 H :    0.122328
Sum of atomic charges:   -0.0000000

LOEWDIN ATOMIC CHARGES
----------------------
   0 C :   -0.153081
   1 C :   -0.142846
   2 C :   -0.152422
   3 C :   -0.132871
   4 C :   -0.073942
   5 C :    0.024767
   6 O :   -0.021897
   7 C :   -0.044355
   8 C :   -0.190943
   9 H :    0.155125
  10 H :    0.150093
  11 H :    0.144787
  12 H :    0.141725
  13 H :    0.143414
  14 H :    0.152448

  Mayer bond orders larger than 0.100000
B(  0-C ,  1-C ) :   1.3934 B(  0-C ,  3-C ) :   0.1041 B(  0-C ,  5-C ) :   1.3407
B(  0-C , 14-H ) :   0.9751 B(  1-C ,  2-C ) :   1.3381 B(  1-C , 13-H ) :   0.9613
B(  2-C ,  3-C ) :   1.4278 B(  2-C , 12-H ) :   0.9627 B(  3-C ,  4-C ) :   1.2964
B(  3-C , 11-H ) :   0.9727 B(  4-C ,  5-C ) :   1.2840 B(  4-C ,  8-C ) :   1.1447
B(  5-C ,  6-O ) :   1.0943 B(  6-O ,  7-C ) :   1.0855 B(  7-C ,  8-C ) :   1.5888
B(  7-C , 10-H ) :   0.9643 B(  8-C ,  9-H ) :   0.9777

Dispersion correction           -0.013707342
FINAL SINGLE POINT ENERGY      -382.968738041574

DIPOLE MOMENT
-------------

Method             : SCF
Type of density    : Electron Density
Multiplicity       :   1
Irrep              :   0
Energy             :  -382.9550306992300648 Eh
Relativity type    :
Basis              : AO
                                X                 Y                 Z
Electronic contribution:     -2.707638934      -1.429636162      -0.002356131
Nuclear contribution   :      2.517100486       1.728270274       0.003904961
                        -----------------------------------------
Total Dipole Moment    :     -0.190538449       0.298634113       0.001548830
                        -----------------------------------------
Magnitude (a.u.)       :      0.354245159
Magnitude (Debye)      :      0.900419637

VIBRATIONAL FREQUENCIES
-----------------------

Scaling factor for frequencies =  1.000000000  (already applied!)

     0:       0.00 cm**-1
     1:       0.00 cm**-1
     2:       0.00 cm**-1
     3:       0.00 cm**-1
     4:       0.00 cm**-1
     5:       0.00 cm**-1
     6:     221.34 cm**-1
     7:     256.64 cm**-1
     8:     411.84 cm**-1
     9:     438.28 cm**-1
    10:     548.30 cm**-1
    11:     594.98 cm**-1
    12:     607.85 cm**-1
    13:     621.93 cm**-1
    14:     756.89 cm**-1
    15:     770.96 cm**-1
    16:     787.71 cm**-1
    17:     801.38 cm**-1
    18:     877.98 cm**-1
    19:     884.42 cm**-1
    20:     899.93 cm**-1
    21:     914.49 cm**-1
    22:     969.65 cm**-1
    23:    1012.43 cm**-1
    24:    1037.59 cm**-1
    25:    1065.38 cm**-1
    26:    1119.28 cm**-1
    27:    1144.40 cm**-1
    28:    1171.52 cm**-1
    29:    1217.79 cm**-1
    30:    1285.72 cm**-1
    31:    1316.53 cm**-1
    32:    1377.88 cm**-1
    33:    1438.22 cm**-1
    34:    1504.26 cm**-1
    35:    1527.72 cm**-1
    36:    1607.73 cm**-1
    37:    1671.29 cm**-1
    38:    1703.34 cm**-1
    39:    3200.09 cm**-1
    40:    3210.50 cm**-1
    41:    3219.46 cm**-1
    42:    3229.43 cm**-1
    43:    3269.16 cm**-1
    44:    3294.01 cm**-1

IR SPECTRUM
-----------

 Mode   freq       eps      Int      T**2         TX        TY        TZ
       cm**-1   L/(mol*cm) km/mol    a.u.
----------------------------------------------------------------------------
  6:    221.34   0.001997   10.09  0.002816  (-0.000139 -0.000058  0.053065)
  7:    256.64   0.000066    0.33  0.000081  ( 0.000028 -0.000049  0.008976)
  8:    411.84   0.002050   10.36  0.001553  (-0.018832 -0.034625 -0.000020)
  9:    438.28   0.002889   14.60  0.002057  ( 0.000107  0.000028 -0.045353)
 10:    548.30   0.000098    0.50  0.000056  ( 0.006236  0.004133  0.000054)
 11:    594.98   0.000073    0.37  0.000038  (-0.000088  0.000023  0.006184)
 12:    607.85   0.000041    0.21  0.000021  ( 0.000213  0.000102 -0.004582)
 13:    621.93   0.000434    2.19  0.000218  ( 0.014052 -0.004504 -0.000034)
 14:    756.89   0.000065    0.33  0.000027  (-0.000007  0.000103 -0.005161)
 15:    770.96   0.034379  173.74  0.013916  ( 0.000217 -0.000065 -0.117965)
 16:    787.71   0.002337   11.81  0.000926  ( 0.026941 -0.014123  0.000701)
 17:    801.38   0.001303    6.58  0.000507  (-0.000057  0.000049  0.022522)
 18:    877.98   0.002901   14.66  0.001031  ( 0.018284  0.026399 -0.000107)
 19:    884.42   0.000020    0.10  0.000007  (-0.000059 -0.000240 -0.002650)
 20:    899.93   0.000174    0.88  0.000060  ( 0.000202  0.000234  0.007755)
 21:    914.49   0.001062    5.37  0.000362  (-0.003722  0.018672  0.000027)
 22:    969.65   0.000673    3.40  0.000217  ( 0.000213 -0.000080 -0.014713)
 23:   1012.43   0.000000    0.00  0.000000  (-0.000032  0.000270 -0.000207)
 24:   1037.59   0.003494   17.66  0.001051  (-0.031013  0.009438 -0.000134)
 25:   1065.38   0.003796   19.18  0.001112  (-0.018488 -0.027752  0.000006)
 26:   1119.28   0.004604   23.27  0.001284  (-0.012850 -0.033444  0.000034)
 27:   1144.40   0.000534    2.70  0.000146  ( 0.002620 -0.011776  0.000005)
 28:   1171.52   0.007552   38.16  0.002012  (-0.004780  0.044595 -0.000047)
 29:   1217.79   0.010567   53.40  0.002708  ( 0.033875 -0.039501 -0.000008)
 30:   1285.72   0.000551    2.79  0.000134  ( 0.003618 -0.010986 -0.000013)
 31:   1316.53   0.013341   67.42  0.003162  (-0.055016  0.011648  0.000008)
 32:   1377.88   0.003070   15.51  0.000695  (-0.023145 -0.012629  0.000000)
 33:   1438.22   0.001946    9.84  0.000422  ( 0.020526 -0.001021  0.000007)
 34:   1504.26   0.017154   86.69  0.003559  (-0.055714 -0.021321 -0.000003)
 35:   1527.72   0.001358    6.86  0.000277  ( 0.008444 -0.014357  0.000010)
 36:   1607.73   0.007422   37.51  0.001441  (-0.008915 -0.036893  0.000043)
 37:   1671.29   0.000170    0.86  0.000032  (-0.005290  0.001918  0.000009)
 38:   1703.34   0.000070    0.35  0.000013  (-0.002336  0.002702 -0.000008)
 39:   3200.09   0.000256    1.29  0.000025  (-0.004700 -0.001701 -0.000005)
 40:   3210.50   0.001717    8.68  0.000167  (-0.007208  0.010720  0.000026)
 41:   3219.46   0.003195   16.15  0.000310  ( 0.012730  0.012151 -0.000015)
 42:   3229.43   0.000904    4.57  0.000087  (-0.007460  0.005631  0.000028)
 43:   3269.16   0.000540    2.73  0.000052  ( 0.006101  0.003788  0.000027)
 44:   3294.01   0.000040    0.20  0.000004  (-0.001956 -0.000047  0.000050)

--------------------------
THERMOCHEMISTRY AT 298.15K
--------------------------

Temperature         ...   298.15 K
Pressure            ...     1.00 atm
Total Mass          ...   118.13 AMU
Quasi RRHO          ...     True
Cut-Off Frequency   ...     1.00 cm^-1

Throughout the following assumptions are being made:
  (1) The electronic state is orbitally nondegenerate
  (2) There are no thermally accessible electronically excited states
  (3) Hindered rotations indicated by low frequency modes are not
      treated as such but are treated as vibrations and this may
      cause some error
  (4) All equations used are the standard statistical mechanics
      equations for an ideal gas
  (5) All vibrations are strictly harmonic

freq.     221.34  E(vib)   ...       0.33
freq.     256.64  E(vib)   ...       0.30
freq.     411.84  E(vib)   ...       0.19
freq.     438.28  E(vib)   ...       0.17
freq.     548.30  E(vib)   ...       0.12
freq.     594.98  E(vib)   ...       0.10
freq.     607.85  E(vib)   ...       0.10
freq.     621.93  E(vib)   ...       0.09
freq.     756.89  E(vib)   ...       0.06
freq.     770.96  E(vib)   ...       0.05
freq.     787.71  E(vib)   ...       0.05
freq.     801.38  E(vib)   ...       0.05
freq.     877.98  E(vib)   ...       0.04
freq.     884.42  E(vib)   ...       0.04
freq.     899.93  E(vib)   ...       0.03
freq.     914.49  E(vib)   ...       0.03
freq.     969.65  E(vib)   ...       0.03
freq.    1012.43  E(vib)   ...       0.02
freq.    1037.59  E(vib)   ...       0.02
freq.    1065.38  E(vib)   ...       0.02
freq.    1119.28  E(vib)   ...       0.01
freq.    1144.40  E(vib)   ...       0.01
freq.    1171.52  E(vib)   ...       0.01
freq.    1217.79  E(vib)   ...       0.01
freq.    1285.72  E(vib)   ...       0.01
freq.    1316.53  E(vib)   ...       0.01
freq.    1377.88  E(vib)   ...       0.01
freq.    1438.22  E(vib)   ...       0.00
freq.    1504.26  E(vib)   ...       0.00
freq.    1527.72  E(vib)   ...       0.00
freq.    1607.73  E(vib)   ...       0.00
freq.    1671.29  E(vib)   ...       0.00
freq.    1703.34  E(vib)   ...       0.00
freq.    3200.09  E(vib)   ...       0.00
freq.    3210.50  E(vib)   ...       0.00
freq.    3219.46  E(vib)   ...       0.00
freq.    3229.43  E(vib)   ...       0.00
freq.    3269.16  E(vib)   ...       0.00
freq.    3294.01  E(vib)   ...       0.00

------------
INNER ENERGY
------------

The inner energy is: U= E(el) + E(ZPE) + E(vib) + E(rot) + E(trans)
    E(el)   - is the total energy from the electronic structure calculation
              = E(kin-el) + E(nuc-el) + E(el-el) + E(nuc-nuc)
    E(ZPE)  - the the zero temperature vibrational energy from the frequency calculation
    E(vib)  - the the finite temperature correction to E(ZPE) due to population
              of excited vibrational states
    E(rot)  - is the rotational thermal energy
    E(trans)- is the translational thermal energy

Summary of contributions to the inner energy U:
Electronic energy                ...   -382.96873804 Eh
Zero point energy                ...      0.11843813 Eh      74.32 kcal/mol
Thermal vibrational correction   ...      0.00306397 Eh       1.92 kcal/mol
Thermal rotational correction    ...      0.00141627 Eh       0.89 kcal/mol
Thermal translational correction ...      0.00141627 Eh       0.89 kcal/mol
-----------------------------------------------------------------------
Total thermal energy                   -382.84440340 Eh

Summary of corrections to the electronic energy:
(perhaps to be used in another calculation)
Total thermal correction                  0.00589651 Eh       3.70 kcal/mol
Non-thermal (ZPE) correction              0.11843813 Eh      74.32 kcal/mol
-----------------------------------------------------------------------
Total correction                          0.12433464 Eh      78.02 kcal/mol

--------
ENTHALPY
--------

The enthalpy is H = U + kB*T
                kB is Boltzmann's constant
Total thermal energy              ...   -382.84440340 Eh
Thermal Enthalpy correction       ...      0.00094421 Eh       0.59 kcal/mol
-----------------------------------------------------------------------
Total Enthalpy                    ...   -382.84345919 Eh

Note: Only C1 symmetry has been detected, increase convergence thresholds
      if your molecule has a higher symmetry. Symmetry factor of 1.0 is
      used for the rotational entropy correction.

Note: Rotational entropy computed according to Herzberg
Infrared and Raman Spectra, Chapter V,1, Van Nostrand Reinhold, 1945
Point Group:  C1, Symmetry Number:   1
Rotational constants in cm-1:     0.130892     0.055459     0.038954

Vibrational entropy computed according to the QRRHO of S. Grimme
Chem.Eur.J. 2012 18 9955 using a reference frequency of 100.0 cm-1

-------
ENTROPY
-------

The entropy contributions are T*S = T*(S(el)+S(vib)+S(rot)+S(trans))
     S(el)   - electronic entropy
     S(vib)  - vibrational entropy
     S(rot)  - rotational entropy
     S(trans)- translational entropy
The entropies will be listed as multiplied by the temperature to get
units of energy

Electronic entropy                ...      0.00000000 Eh      0.00 kcal/mol
Vibrational entropy               ...      0.00446739 Eh      2.80 kcal/mol
Rotational entropy                ...      0.01336820 Eh      8.39 kcal/mol
Translational entropy             ...      0.01910727 Eh     11.99 kcal/mol
-----------------------------------------------------------------------
Final entropy term                ...      0.03694286 Eh     23.18 kcal/mol

In case the symmetry of your molecule has not been determined correctly
or in case you have a reason to use a different symmetry number we print
out the resulting rotational entropy values for sn=1,12:

 non-linear molecules -----------------------------------
|  sn= 1 | S(rot)=       0.01336820 Eh      8.39 kcal/mol|
|  sn= 2 | S(rot)=       0.01271374 Eh      7.98 kcal/mol|
|  sn= 3 | S(rot)=       0.01233091 Eh      7.74 kcal/mol|
|  sn= 4 | S(rot)=       0.01205929 Eh      7.57 kcal/mol|
|  sn= 5 | S(rot)=       0.01184860 Eh      7.44 kcal/mol|
|  sn= 6 | S(rot)=       0.01167645 Eh      7.33 kcal/mol|
|  sn= 7 | S(rot)=       0.01153091 Eh      7.24 kcal/mol|
|  sn= 8 | S(rot)=       0.01140483 Eh      7.16 kcal/mol|
|  sn= 9 | S(rot)=       0.01129362 Eh      7.09 kcal/mol|
|  sn=10 | S(rot)=       0.01119414 Eh      7.02 kcal/mol|
|  sn=11 | S(rot)=       0.01110415 Eh      6.97 kcal/mol|
|  sn=12 | S(rot)=       0.01102200 Eh      6.92 kcal/mol|
 linear molecules ---------------------------------------
|  Dinfh | S(rot)=       0.00839002 Eh      5.26 kcal/mol|
|  Cinfv | S(rot)=       0.00904448 Eh      5.68 kcal/mol|
 --------------------------------------------------------

-------------------
GIBBS FREE ENERGY
-------------------

                             ****ORCA TERMINATED NORMALLY****
TOTAL RUN TIME: 0 days 0 hours 4 minutes 50 seconds 792 msec
