                         Program Version 6.0.0  -   RELEASE  -
|  1> !r2SCANh aug-cc-pVTZ d3 TightSCF SlowConv RIJCOSX defgrid2
|  2>
|  3> %pal
|  4> nprocs 4
|  5> end
|  6>
|  7> %scf
|  8> MaxIter 1500
|  9> end
| 10>
| 11> %maxcore 3000
| 12>
| 13> !CPCM
| 14> %cpcm smd true
| 15> SMDsolvent "MeCN"
| 16> surfacetype gepol_ses
| 17> rsolv 2.19
| 18> end
| 19>
| 20> * xyz 0 1
| 21> C           4.13966964128756      1.20735034805801      0.00018109983423
| 22> C           4.83985938717942      0.00012909944918     -0.00011080706815
| 23> C           4.13977283020272     -1.20715138721907     -0.00030540880609
| 24> C           2.74896974902717     -1.21166073629652     -0.00020947111922
| 25> C           2.03371707188302      0.00000535590610      0.00007936492405
| 26> C           2.74886648576486      1.21173557633403      0.00027305110837
| 27> H           2.19700573398250      2.15507580320245      0.00050096603306
| 28> C           0.60926575165477     -0.00003899905682      0.00017121398327
| 29> C          -0.60926677013399     -0.00011851011831      0.00032726130009
| 30> C          -2.03371710027454     -0.00005107798655      0.00019494163829
| 31> C          -2.74898416366441     -1.21170960248422      0.00036780306847
| 32> C          -4.13978643826222     -1.20718728138590      0.00021041667338
| 33> C          -4.83985863236214      0.00010214935927     -0.00011716793755
| 34> C          -4.13965447812715      1.20731478629068     -0.00028483680888
| 35> C          -2.74885097774675      1.21168640857502     -0.00012607465811
| 36> H          -2.19698244285642      2.15502223469334     -0.00025694123114
| 37> H          -4.68454348342066      2.15603211713716     -0.00054208004626
| 38> H          -5.93383287072922      0.00016036307699     -0.00023936958784
| 39> H          -4.68478251870500     -2.15584320000508      0.00034538941345
| 40> H          -2.19721645884462     -2.15510431633366      0.00062541194967
| 41> H           2.19719446528860     -2.15505107012925     -0.00036096765238
| 42> H           4.68475743011085     -2.15581340727935     -0.00053331434756
| 43> H           5.93383355030704      0.00017426906263     -0.00018342642694
| 44> H           4.68456993843861      2.15606107714988      0.00033824576380
| 45> *
| 46>
| 47>                          ****END OF INPUT****

CARTESIAN COORDINATES (ANGSTROEM)
---------------------------------
  C      4.139670    1.207350    0.000181
  C      4.839859    0.000129   -0.000111
  C      4.139773   -1.207151   -0.000305
  C      2.748970   -1.211661   -0.000209
  C      2.033717    0.000005    0.000079
  C      2.748866    1.211736    0.000273
  H      2.197006    2.155076    0.000501
  C      0.609266   -0.000039    0.000171
  C     -0.609267   -0.000119    0.000327
  C     -2.033717   -0.000051    0.000195
  C     -2.748984   -1.211710    0.000368
  C     -4.139786   -1.207187    0.000210
  C     -4.839859    0.000102   -0.000117
  C     -4.139654    1.207315   -0.000285
  C     -2.748851    1.211686   -0.000126
  H     -2.196982    2.155022   -0.000257
  H     -4.684543    2.156032   -0.000542
  H     -5.933833    0.000160   -0.000239
  H     -4.684783   -2.155843    0.000345
  H     -2.197216   -2.155104    0.000625
  H      2.197194   -2.155051   -0.000361
  H      4.684757   -2.155813   -0.000533
  H      5.933834    0.000174   -0.000183
  H      4.684570    2.156061    0.000338

 Total Charge           Charge          ....    0
 Multiplicity           Mult            ....    1
 Number of Electrons    NEL             ....   94
 Basis Dimension        Dim             ....  874

ORBITAL ENERGIES
----------------

  NO   OCC          E(Eh)            E(eV)
   0   2.0000     -10.195150      -277.4241
   1   2.0000     -10.195145      -277.4240
   2   2.0000     -10.171006      -276.7671
   3   2.0000     -10.170692      -276.7586
   4   2.0000     -10.170687      -276.7585
   5   2.0000     -10.170685      -276.7584
   6   2.0000     -10.170683      -276.7583
   7   2.0000     -10.168854      -276.7086
   8   2.0000     -10.167081      -276.6603
   9   2.0000     -10.167080      -276.6603
  10   2.0000     -10.166706      -276.6501
  11   2.0000     -10.166706      -276.6501
  12   2.0000     -10.166345      -276.6403
  13   2.0000     -10.166341      -276.6402
  14   2.0000      -0.872269       -23.7356
  15   2.0000      -0.868721       -23.6391
  16   2.0000      -0.798566       -21.7301
  17   2.0000      -0.771918       -21.0049
  18   2.0000      -0.752680       -20.4815
  19   2.0000      -0.752527       -20.4773
  20   2.0000      -0.720825       -19.6147
  21   2.0000      -0.635339       -17.2885
  22   2.0000      -0.607040       -16.5184
  23   2.0000      -0.605757       -16.4835
  24   2.0000      -0.605641       -16.4803
  25   2.0000      -0.540789       -14.7156
  26   2.0000      -0.523284       -14.2393
  27   2.0000      -0.478286       -13.0148
  28   2.0000      -0.466232       -12.6868
  29   2.0000      -0.455458       -12.3936
  30   2.0000      -0.450446       -12.2572
  31   2.0000      -0.428409       -11.6576
  32   2.0000      -0.422650       -11.5009
  33   2.0000      -0.413384       -11.2488
  34   2.0000      -0.413089       -11.2407
  35   2.0000      -0.391816       -10.6619
  36   2.0000      -0.379073       -10.3151
  37   2.0000      -0.349987        -9.5236
  38   2.0000      -0.345721        -9.4075
  39   2.0000      -0.340250        -9.2587
  40   2.0000      -0.335853        -9.1390
  41   2.0000      -0.323538        -8.8039
  42   2.0000      -0.276360        -7.5201
  43   2.0000      -0.273394        -7.4394
  44   2.0000      -0.260649        -7.0926
  45   2.0000      -0.260535        -7.0895
  46   2.0000      -0.219613        -5.9760
  47   0.0000      -0.073202        -1.9919
  48   0.0000      -0.031728        -0.8634
  49   0.0000      -0.030088        -0.8187
  50   0.0000      -0.018056        -0.4913
  51   0.0000       0.005889         0.1602

MULLIKEN ATOMIC CHARGES
-----------------------
   0 C :   -0.831122
   1 C :    0.107105
   2 C :   -0.831046
   3 C :   -1.153020
   4 C :    1.846548
   5 C :   -1.140174
   6 H :   -0.419047
   7 C :    1.209566
   8 C :    1.205820
   9 C :    1.875977
  10 C :   -1.126073
  11 C :   -0.810162
  12 C :    0.131192
  13 C :   -0.783564
  14 C :   -1.154027
  15 H :   -0.468382
  16 H :    0.527173
  17 H :    0.490066
  18 H :    0.494244
  19 H :   -0.389702
  20 H :   -0.431494
  21 H :    0.535735
  22 H :    0.553993
  23 H :    0.560394
Sum of atomic charges:    0.0000000

LOEWDIN ATOMIC CHARGES
----------------------
   0 C :    0.193601
   1 C :    0.191369
   2 C :    0.193595
   3 C :    0.194284
   4 C :   -0.220736
   5 C :    0.194291
   6 H :   -0.163115
   7 C :    0.083124
   8 C :    0.083117
   9 C :   -0.220729
  10 C :    0.194291
  11 C :    0.193609
  12 C :    0.191374
  13 C :    0.193610
  14 C :    0.194291
  15 H :   -0.163133
  16 H :   -0.167519
  17 H :   -0.168288
  18 H :   -0.167520
  19 H :   -0.163109
  20 H :   -0.163124
  21 H :   -0.167514
  22 H :   -0.168265
  23 H :   -0.167502

  Mayer bond orders larger than 0.100000
B(  0-C ,  1-C ) :   1.0529 B(  0-C ,  2-C ) :   0.4014 B(  0-C ,  3-C ) :   0.1802
B(  0-C ,  4-C ) :   0.2821 B(  0-C ,  5-C ) :   1.2266 B(  0-C ,  7-C ) :   0.6591
B(  0-C ,  8-C ) :  -0.9114 B(  0-C , 22-H ) :  -0.1119 B(  0-C , 23-H ) :   0.3358
B(  1-C ,  2-C ) :   1.0517 B(  1-C ,  3-C ) :  -0.4943 B(  1-C ,  4-C ) :  -0.2545
B(  1-C ,  5-C ) :  -0.4760 B(  1-C ,  6-H ) :  -0.1522 B(  1-C ,  7-C ) :  -0.2494
B(  1-C ,  8-C ) :   1.0330 B(  1-C , 20-H ) :  -0.1682 B(  1-C , 21-H ) :   0.1779
B(  1-C , 22-H ) :   0.5569 B(  1-C , 23-H ) :   0.1726 B(  2-C ,  3-C ) :   1.2280
B(  2-C ,  4-C ) :   0.2612 B(  2-C ,  5-C ) :   0.1751 B(  2-C ,  7-C ) :   0.6803
B(  2-C ,  8-C ) :  -0.9314 B(  2-C , 21-H ) :   0.3876 B(  2-C , 22-H ) :  -0.1227
B(  3-C ,  5-C ) :  -0.9524 B(  3-C ,  6-H ) :   0.4176 B(  3-C ,  9-C ) :   0.1225
B(  3-C , 20-H ) :   2.6571 B(  3-C , 21-H ) :  -0.2222 B(  4-C ,  9-C ) :   0.3757
B(  4-C , 10-C ) :   0.1254 B(  4-C , 14-C ) :   0.1119 B(  4-C , 15-H ) :  -0.2125
B(  4-C , 18-H ) :   0.1356 B(  4-C , 19-H ) :  -0.1518 B(  5-C ,  6-H ) :   2.5909
B(  5-C , 20-H ) :   0.4168 B(  5-C , 23-H ) :  -0.2184 B(  6-H ,  7-C ) :  -0.5883
B(  6-H ,  8-C ) :  -0.8200 B(  6-H ,  9-C ) :  -0.1671 B(  6-H , 20-H ) :   0.7086
B(  6-H , 21-H ) :  -0.1576 B(  7-C ,  8-C ) :   5.6747 B(  7-C , 10-C ) :   0.1468
B(  7-C , 11-C ) :  -0.8403 B(  7-C , 12-C ) :   1.1563 B(  7-C , 13-C ) :  -0.7469
B(  7-C , 15-H ) :  -0.9858 B(  7-C , 17-H ) :   0.7664 B(  7-C , 18-H ) :  -0.2032
B(  7-C , 19-H ) :  -0.7107 B(  7-C , 20-H ) :  -0.5699 B(  7-C , 21-H ) :   0.3894
B(  7-C , 22-H ) :  -0.8595 B(  7-C , 23-H ) :   0.3066 B(  8-C , 11-C ) :   0.5883
B(  8-C , 12-C ) :  -0.3296 B(  8-C , 13-C ) :   0.5547 B(  8-C , 15-H ) :  -0.5047
B(  8-C , 16-H ) :   0.4139 B(  8-C , 17-H ) :  -0.6879 B(  8-C , 18-H ) :   0.4785
B(  8-C , 19-H ) :  -0.6508 B(  8-C , 20-H ) :  -0.8642 B(  8-C , 22-H ) :   1.0182
B(  9-C , 11-C ) :   0.2403 B(  9-C , 12-C ) :  -0.2325 B(  9-C , 13-C ) :   0.2580
B(  9-C , 20-H ) :  -0.1679 B(  9-C , 23-H ) :   0.1471 B( 10-C , 11-C ) :   1.2039
B( 10-C , 12-C ) :  -0.4729 B( 10-C , 13-C ) :   0.1563 B( 10-C , 14-C ) :  -0.9707
B( 10-C , 15-H ) :   0.4175 B( 10-C , 18-H ) :  -0.1845 B( 10-C , 19-H ) :   2.5272
B( 11-C , 12-C ) :   1.0056 B( 11-C , 13-C ) :   0.3508 B( 11-C , 14-C ) :   0.2154
B( 11-C , 17-H ) :  -0.1315 B( 11-C , 18-H ) :   0.4928 B( 11-C , 19-H ) :  -0.1142
B( 12-C , 13-C ) :   1.0045 B( 12-C , 14-C ) :  -0.5173 B( 12-C , 15-H ) :  -0.2070
B( 12-C , 16-H ) :   0.1567 B( 12-C , 17-H ) :   0.6407 B( 12-C , 18-H ) :   0.1301
B( 12-C , 19-H ) :  -0.1781 B( 13-C , 14-C ) :   1.1689 B( 13-C , 15-H ) :  -0.1050
B( 13-C , 16-H ) :   0.4263 B( 13-C , 17-H ) :  -0.1210 B( 13-C , 19-H ) :  -0.1282
B( 14-C , 15-H ) :   2.7504 B( 14-C , 16-H ) :  -0.2382 B( 14-C , 19-H ) :   0.3970
B( 15-H , 18-H ) :  -0.1392 B( 15-H , 19-H ) :   0.7145 B( 16-H , 19-H ) :  -0.1443
B( 20-H , 23-H ) :  -0.1769

Dispersion correction           -0.008653167
FINAL SINGLE POINT ENERGY      -539.328157006896

DIPOLE MOMENT
-------------

Method             : SCF
Type of density    : Electron Density
Multiplicity       :   1
Irrep              :   0
Energy             :  -539.3195038400888279 Eh
Relativity type    :
Basis              : AO
                                X                 Y                 Z
Electronic contribution:      0.000009699      -0.000230815       0.000464571
Nuclear contribution   :      0.000001470       0.000375094      -0.000682746
                        -----------------------------------------
Total Dipole Moment    :      0.000011169       0.000144279      -0.000218176
                        -----------------------------------------
Magnitude (a.u.)       :      0.000261805
Magnitude (Debye)      :      0.000665455

Rotational constants in cm-1:             0.094691             0.008279             0.007613
Rotational constants in MHz :          2838.770806           248.185899           228.232190

                             ****ORCA TERMINATED NORMALLY****
TOTAL RUN TIME: 0 days 0 hours 10 minutes 59 seconds 376 msec
