                         Program Version 6.0.0  -   RELEASE  -
|  1> !PBE0 def2-SV(p) Opt Freq d3 TightSCF SlowConv RIJCOSX defgrid2
|  2>
|  3> %pal
|  4> nprocs 4
|  5> end
|  6>
|  7> %scf
|  8> MaxIter 1500
|  9> end
| 10>
| 11> %maxcore 3000
| 12>
| 13>
| 14>
| 15> * xyz 1 2
| 16> C     1.2565320   -1.3881458   -0.0000046
| 17> C     2.4296140   -0.6861813   -0.0000152
| 18> C     2.4037950    0.7203555   -0.0000178
| 19> C     1.2133389    1.3901671   -0.0000094
| 20> C    -0.0108880    0.6988001    0.0000002
| 21> N    -1.1890609    1.2796571    0.0000067
| 22> C    -2.3418830    0.7216198    0.0000211
| 23> C    -2.4244743   -0.6912103    0.0000263
| 24> C    -1.2506812   -1.3897656    0.0000219
| 25> C     0.0042775   -0.7533374    0.0000075
| 26> H    -1.2733837   -2.4728656    0.0000331
| 27> H    -3.3947525   -1.1610529    0.0000342
| 28> H    -3.2265654    1.3435990    0.0000270
| 29> H     1.1759861    2.4700754   -0.0000049
| 30> H     3.3350222    1.2654815   -0.0000265
| 31> H     3.3774576   -1.2001163   -0.0000228
| 32> H     1.2715231   -2.4698305   -0.0000114
| 33> *
| 34>
| 35>                          ****END OF INPUT****
 Total Charge           Charge          ....    1
 Multiplicity           Mult            ....    2
 Number of Electrons    NEL             ....   67
Dispersion correction           -0.017431824
FINAL SINGLE POINT ENERGY      -400.845784237038
Dispersion correction             ... done (  0.1 sec)
Dispersion correction           -0.017353475
FINAL SINGLE POINT ENERGY      -400.857909107475
Dispersion correction             ... done (  0.1 sec)
Dispersion correction           -0.017342759
FINAL SINGLE POINT ENERGY      -400.861351066589
Dispersion correction             ... done (  0.1 sec)
FINAL SINGLE POINT ENERGY      -400.861560918543
Dispersion correction             ... done (  0.0 sec)
Dispersion correction           -0.017350999
FINAL SINGLE POINT ENERGY      -400.861587944630
Dispersion correction             ... done (  0.1 sec)
Dispersion correction           -0.017351541
FINAL SINGLE POINT ENERGY      -400.861592591574
Dispersion correction             ... done (  0.0 sec)
                    ***********************HURRAY********************

CARTESIAN COORDINATES (ANGSTROEM)
---------------------------------
  C      1.239061   -1.405511   -0.000005
  C      2.450158   -0.673224   -0.000009
  C      2.428111    0.712685   -0.000016
  C      1.195711    1.394241   -0.000011
  C     -0.039810    0.678290    0.000003
  N     -1.173322    1.385637    0.000003
  C     -2.329188    0.723479    0.000024
  C     -2.420776   -0.675600    0.000023
  C     -1.247274   -1.426668    0.000020
  C     -0.012026   -0.747173    0.000011
  H     -1.278753   -2.520704    0.000031
  H     -3.399739   -1.161868    0.000027
  H     -3.237451    1.336964    0.000042
  H      1.145992    2.487032   -0.000018
  H      3.362418    1.280709   -0.000031
  H      3.402298   -1.210932   -0.000013
  H      1.270447   -2.500107   -0.000017

 Multiplicity           Mult            ....    2
 Number of Electrons    NEL             ....   67
 Basis Dimension        Dim             ....  154

ORBITAL ENERGIES
----------------
                 SPIN UP ORBITALS
  NO   OCC          E(Eh)            E(eV)
   0   1.0000     -14.585725      -396.8978
   1   1.0000     -10.475885      -285.0633
   2   1.0000     -10.469680      -284.8945
   3   1.0000     -10.467144      -284.8255
   4   1.0000     -10.457251      -284.5563
   5   1.0000     -10.456603      -284.5386
   6   1.0000     -10.452293      -284.4214
   7   1.0000     -10.448454      -284.3169
   8   1.0000     -10.447156      -284.2816
   9   1.0000     -10.434621      -283.9405
  10   1.0000      -1.167158       -31.7600
  11   1.0000      -1.078838       -29.3567
  12   1.0000      -1.025997       -27.9188
  13   1.0000      -0.970123       -26.3984
  14   1.0000      -0.963475       -26.2175
  15   1.0000      -0.859553       -23.3896
  16   1.0000      -0.842919       -22.9370
  17   1.0000      -0.820101       -22.3161
  18   1.0000      -0.739311       -20.1177
  19   1.0000      -0.727168       -19.7872
  20   1.0000      -0.718737       -19.5578
  21   1.0000      -0.667021       -18.1506
  22   1.0000      -0.653828       -17.7916
  23   1.0000      -0.643474       -17.5098
  24   1.0000      -0.633239       -17.2313
  25   1.0000      -0.611531       -16.6406
  26   1.0000      -0.606702       -16.5092
  27   1.0000      -0.575060       -15.6482
  28   1.0000      -0.564395       -15.3580
  29   1.0000      -0.558464       -15.1966
  30   1.0000      -0.528296       -14.3757
  31   1.0000      -0.462274       -12.5791
  32   1.0000      -0.458217       -12.4687
  33   1.0000      -0.457030       -12.4364
  34   0.0000      -0.267544        -7.2802
  35   0.0000      -0.207506        -5.6465
  36   0.0000      -0.186900        -5.0858
  37   0.0000      -0.107052        -2.9130
  38   0.0000      -0.085301        -2.3212

                 SPIN DOWN ORBITALS
  NO   OCC          E(Eh)            E(eV)
   0   1.0000     -14.582261      -396.8035
   1   1.0000     -10.470702      -284.9223
   2   1.0000     -10.470216      -284.9091
   3   1.0000     -10.460855      -284.6543
   4   1.0000     -10.457383      -284.5599
   5   1.0000     -10.454126      -284.4712
   6   1.0000     -10.451140      -284.3900
   7   1.0000     -10.449587      -284.3477
   8   1.0000     -10.447164      -284.2818
   9   1.0000     -10.433946      -283.9221
  10   1.0000      -1.161688       -31.6111
  11   1.0000      -1.070098       -29.1188
  12   1.0000      -1.019403       -27.7394
  13   1.0000      -0.968553       -26.3557
  14   1.0000      -0.949120       -25.8269
  15   1.0000      -0.855543       -23.2805
  16   1.0000      -0.839048       -22.8317
  17   1.0000      -0.814857       -22.1734
  18   1.0000      -0.735719       -20.0199
  19   1.0000      -0.723606       -19.6903
  20   1.0000      -0.716342       -19.4927
  21   1.0000      -0.666354       -18.1324
  22   1.0000      -0.650178       -17.6923
  23   1.0000      -0.640604       -17.4317
  24   1.0000      -0.618731       -16.8365
  25   1.0000      -0.609407       -16.5828
  26   1.0000      -0.605300       -16.4711
  27   1.0000      -0.573356       -15.6018
  28   1.0000      -0.556156       -15.1338
  29   1.0000      -0.539572       -14.6825
  30   1.0000      -0.499727       -13.5983
  31   1.0000      -0.462168       -12.5762
  32   1.0000      -0.453526       -12.3411
  33   0.0000      -0.369309       -10.0494
  34   0.0000      -0.237600        -6.4654
  35   0.0000      -0.199049        -5.4164
  36   0.0000      -0.164140        -4.4665
  37   0.0000      -0.089824        -2.4442

MULLIKEN ATOMIC CHARGES AND SPIN POPULATIONS
--------------------------------------------
   0 C :   -0.041589    0.391252
   1 C :   -0.035229    0.067019
   2 C :   -0.055944   -0.019453
   3 C :    0.020232    0.437833
   4 C :    0.005770   -0.081614
   5 N :   -0.090842    0.163600
   6 C :    0.022332   -0.010914
   7 C :   -0.090597    0.041454
   8 C :   -0.006316    0.172084
   9 C :    0.040852   -0.105979
  10 H :    0.164037   -0.007837
  11 H :    0.177826   -0.002753
  12 H :    0.181645   -0.000262
  13 H :    0.173886   -0.019564
  14 H :    0.182684   -0.001517
  15 H :    0.181855   -0.005252
  16 H :    0.169400   -0.018098
Sum of atomic charges         :    1.0000000

LOEWDIN ATOMIC CHARGES AND SPIN POPULATIONS
-------------------------------------------
   0 C :    0.036388    0.317695
   1 C :   -0.052271    0.082901
   2 C :   -0.063635    0.021887
   3 C :    0.044123    0.350841
   4 C :   -0.000439   -0.032826
   5 N :   -0.010934    0.147277
   6 C :   -0.003476    0.000833
   7 C :   -0.084648    0.046586
   8 C :   -0.003696    0.137065
   9 C :   -0.058987   -0.043438
  10 H :    0.167553   -0.004101
  11 H :    0.171837   -0.001401
  12 H :    0.159528   -0.000271
  13 H :    0.180508   -0.010262
  14 H :    0.173755   -0.000834
  15 H :    0.173207   -0.002701
  16 H :    0.171187   -0.009253

  Mayer bond orders larger than 0.100000
B(  0-C ,  1-C ) :   1.2646 B(  0-C ,  9-C ) :   1.2396 B(  0-C , 16-H ) :   0.9496
B(  1-C ,  2-C ) :   1.4426 B(  1-C , 15-H ) :   0.9477 B(  2-C ,  3-C ) :   1.2582
B(  2-C , 14-H ) :   0.9493 B(  3-C ,  4-C ) :   1.2075 B(  3-C , 13-H ) :   0.9444
B(  4-C ,  5-N ) :   1.4879 B(  4-C ,  9-C ) :   1.1723 B(  5-N ,  6-C ) :   1.4684
B(  6-C ,  7-C ) :   1.3533 B(  6-C , 12-H ) :   0.9374 B(  7-C ,  8-C ) :   1.4037
B(  7-C , 11-H ) :   0.9353 B(  8-C ,  9-C ) :   1.2956 B(  8-C , 10-H ) :   0.9454

Dispersion correction           -0.017351218
FINAL SINGLE POINT ENERGY      -400.861593473460

DIPOLE MOMENT
-------------

Method             : SCF
Type of density    : Electron Density
Multiplicity       :   2
Irrep              :   0
Energy             :  -400.8442422553392817 Eh
Relativity type    :
Basis              : AO
                                X                 Y                 Z
Electronic contribution:     -0.580957011       1.211970386       0.000010452
Nuclear contribution   :      1.179405862      -2.142414994      -0.000006417
                        -----------------------------------------
Total Dipole Moment    :      0.598448852      -0.930444608       0.000004035
                        -----------------------------------------
Magnitude (a.u.)       :      1.106285767
Magnitude (Debye)      :      2.811954949

VIBRATIONAL FREQUENCIES
-----------------------

Scaling factor for frequencies =  1.000000000  (already applied!)

     0:       0.00 cm**-1
     1:       0.00 cm**-1
     2:       0.00 cm**-1
     3:       0.00 cm**-1
     4:       0.00 cm**-1
     5:       0.00 cm**-1
     6:     158.94 cm**-1
     7:     169.62 cm**-1
     8:     355.75 cm**-1
     9:     372.08 cm**-1
    10:     394.95 cm**-1
    11:     441.18 cm**-1
    12:     471.75 cm**-1
    13:     495.41 cm**-1
    14:     521.61 cm**-1
    15:     599.66 cm**-1
    16:     745.10 cm**-1
    17:     786.02 cm**-1
    18:     793.19 cm**-1
    19:     818.38 cm**-1
    20:     828.10 cm**-1
    21:     919.90 cm**-1
    22:     938.79 cm**-1
    23:     993.26 cm**-1
    24:    1001.45 cm**-1
    25:    1035.16 cm**-1
    26:    1042.39 cm**-1
    27:    1057.39 cm**-1
    28:    1077.24 cm**-1
    29:    1102.80 cm**-1
    30:    1143.32 cm**-1
    31:    1185.08 cm**-1
    32:    1248.27 cm**-1
    33:    1263.22 cm**-1
    34:    1275.35 cm**-1
    35:    1402.83 cm**-1
    36:    1435.97 cm**-1
    37:    1468.73 cm**-1
    38:    1475.98 cm**-1
    39:    1479.20 cm**-1
    40:    1510.76 cm**-1
    41:    1585.14 cm**-1
    42:    1593.19 cm**-1
    43:    1663.48 cm**-1
    44:    3213.35 cm**-1
    45:    3214.90 cm**-1
    46:    3219.76 cm**-1
    47:    3228.82 cm**-1
    48:    3236.21 cm**-1
    49:    3241.99 cm**-1
    50:    3243.67 cm**-1

IR SPECTRUM
-----------

 Mode   freq       eps      Int      T**2         TX        TY        TZ
       cm**-1   L/(mol*cm) km/mol    a.u.
----------------------------------------------------------------------------
  6:    158.94   0.000557    2.81  0.001093  ( 0.000007 -0.000017 -0.033064)
  7:    169.62   0.000469    2.37  0.000863  ( 0.000002  0.000022  0.029381)
  8:    355.75   0.000118    0.59  0.000103  ( 0.000009 -0.000006  0.010159)
  9:    372.08   0.000374    1.89  0.000314  ( 0.012599 -0.012452 -0.000003)
 10:    394.95   0.001583    8.00  0.001251  (-0.000005 -0.000001  0.035366)
 11:    441.18   0.000887    4.48  0.000628  (-0.000002  0.000012 -0.025051)
 12:    471.75   0.000021    0.11  0.000014  (-0.003290 -0.001841 -0.000003)
 13:    495.41   0.001047    5.29  0.000660  (-0.000001  0.000006 -0.025683)
 14:    521.61   0.000749    3.79  0.000448  (-0.019832 -0.007418  0.000006)
 15:    599.66   0.000924    4.67  0.000481  (-0.016795  0.014090 -0.000001)
 16:    745.10   0.002125   10.74  0.000890  (-0.000001 -0.000012 -0.029836)
 17:    786.02   0.000558    2.82  0.000222  (-0.011362  0.009619 -0.000010)
 18:    793.19   0.008880   44.88  0.003494  (-0.000006  0.000007  0.059107)
 19:    818.38   0.003797   19.19  0.001448  ( 0.000004 -0.000013 -0.038050)
 20:    828.10   0.000041    0.21  0.000016  ( 0.002367  0.003160  0.000006)
 21:    919.90   0.000017    0.08  0.000006  (-0.000005  0.000009  0.002388)
 22:    938.79   0.002366   11.96  0.000787  (-0.004355  0.027706  0.000001)
 23:    993.26   0.000001    0.00  0.000000  ( 0.000000  0.000001 -0.000423)
 24:   1001.45   0.000133    0.67  0.000041  ( 0.000003 -0.000011  0.006432)
 25:   1035.16   0.000008    0.04  0.000003  (-0.000005  0.000026 -0.001587)
 26:   1042.39   0.000016    0.08  0.000005  ( 0.000003 -0.000008 -0.002193)
 27:   1057.39   0.000524    2.65  0.000155  ( 0.012319  0.001730 -0.000001)
 28:   1077.24   0.003003   15.17  0.000870  ( 0.029114 -0.004717 -0.000001)
 29:   1102.80   0.000766    3.87  0.000217  (-0.011699 -0.008931  0.000001)
 30:   1143.32   0.000611    3.09  0.000167  ( 0.012815  0.001619  0.000000)
 31:   1185.08   0.000211    1.07  0.000056  (-0.007443 -0.000448 -0.000000)
 32:   1248.27   0.029993  151.57  0.007498  (-0.086047 -0.009701  0.000001)
 33:   1263.22   0.007923   40.04  0.001957  ( 0.040300  0.018251 -0.000000)
 34:   1275.35   0.001352    6.83  0.000331  (-0.009881 -0.015272  0.000001)
 35:   1402.83   0.000582    2.94  0.000129  ( 0.009912  0.005577 -0.000000)
 36:   1435.97   0.007672   38.77  0.001667  ( 0.000726 -0.040827  0.000000)
 37:   1468.73   0.008099   40.93  0.001721  ( 0.037415  0.017915 -0.000000)
 38:   1475.98   0.001368    6.91  0.000289  (-0.017001 -0.000452  0.000000)
 39:   1479.20   0.008073   40.80  0.001703  ( 0.036526 -0.019211 -0.000000)
 40:   1510.76   0.002411   12.18  0.000498  ( 0.022309 -0.000553  0.000000)
 41:   1585.14   0.007925   40.05  0.001560  ( 0.004279  0.039266 -0.000000)
 42:   1593.19   0.009405   47.53  0.001842  ( 0.020891 -0.037495 -0.000000)
 43:   1663.48   0.003196   16.15  0.000600  (-0.000203  0.024486  0.000001)
 44:   3213.35   0.000267    1.35  0.000026  ( 0.004219  0.002846  0.000000)
 45:   3214.90   0.000318    1.61  0.000031  ( 0.002468  0.004979  0.000000)
 46:   3219.76   0.000325    1.64  0.000031  ( 0.001906 -0.005275  0.000000)
 47:   3228.82   0.000090    0.46  0.000009  (-0.002924  0.000431  0.000000)
 48:   3236.21   0.002152   10.88  0.000208  (-0.006032  0.013081 -0.000000)
 49:   3241.99   0.000776    3.92  0.000075  (-0.007560 -0.004182  0.000000)
 50:   3243.67   0.001922    9.71  0.000185  (-0.012185 -0.006039  0.000000)

--------------------------
THERMOCHEMISTRY AT 298.15K
--------------------------

Temperature         ...   298.15 K
Pressure            ...     1.00 atm
Total Mass          ...   129.16 AMU
Quasi RRHO          ...     True
Cut-Off Frequency   ...     1.00 cm^-1

Throughout the following assumptions are being made:
  (1) The electronic state is orbitally nondegenerate
      but the spin degeneracy is treated
  (2) There are no thermally accessible electronically excited states
  (3) Hindered rotations indicated by low frequency modes are not
      treated as such but are treated as vibrations and this may
      cause some error
  (4) All equations used are the standard statistical mechanics
      equations for an ideal gas
  (5) All vibrations are strictly harmonic

freq.     158.94  E(vib)   ...       0.39
freq.     169.62  E(vib)   ...       0.38
freq.     355.75  E(vib)   ...       0.22
freq.     372.08  E(vib)   ...       0.21
freq.     394.95  E(vib)   ...       0.20
freq.     441.18  E(vib)   ...       0.17
freq.     471.75  E(vib)   ...       0.15
freq.     495.41  E(vib)   ...       0.14
freq.     521.61  E(vib)   ...       0.13
freq.     599.66  E(vib)   ...       0.10
freq.     745.10  E(vib)   ...       0.06
freq.     786.02  E(vib)   ...       0.05
freq.     793.19  E(vib)   ...       0.05
freq.     818.38  E(vib)   ...       0.05
freq.     828.10  E(vib)   ...       0.04
freq.     919.90  E(vib)   ...       0.03
freq.     938.79  E(vib)   ...       0.03
freq.     993.26  E(vib)   ...       0.02
freq.    1001.45  E(vib)   ...       0.02
freq.    1035.16  E(vib)   ...       0.02
freq.    1042.39  E(vib)   ...       0.02
freq.    1057.39  E(vib)   ...       0.02
freq.    1077.24  E(vib)   ...       0.02
freq.    1102.80  E(vib)   ...       0.02
freq.    1143.32  E(vib)   ...       0.01
freq.    1185.08  E(vib)   ...       0.01
freq.    1248.27  E(vib)   ...       0.01
freq.    1263.22  E(vib)   ...       0.01
freq.    1275.35  E(vib)   ...       0.01
freq.    1402.83  E(vib)   ...       0.00
freq.    1435.97  E(vib)   ...       0.00
freq.    1468.73  E(vib)   ...       0.00
freq.    1475.98  E(vib)   ...       0.00
freq.    1479.20  E(vib)   ...       0.00
freq.    1510.76  E(vib)   ...       0.00
freq.    1585.14  E(vib)   ...       0.00
freq.    1593.19  E(vib)   ...       0.00
freq.    1663.48  E(vib)   ...       0.00
freq.    3213.35  E(vib)   ...       0.00
freq.    3214.90  E(vib)   ...       0.00
freq.    3219.76  E(vib)   ...       0.00
freq.    3228.82  E(vib)   ...       0.00
freq.    3236.21  E(vib)   ...       0.00
freq.    3241.99  E(vib)   ...       0.00
freq.    3243.67  E(vib)   ...       0.00

------------
INNER ENERGY
------------

The inner energy is: U= E(el) + E(ZPE) + E(vib) + E(rot) + E(trans)
    E(el)   - is the total energy from the electronic structure calculation
              = E(kin-el) + E(nuc-el) + E(el-el) + E(nuc-nuc)
    E(ZPE)  - the the zero temperature vibrational energy from the frequency calculation
    E(vib)  - the the finite temperature correction to E(ZPE) due to population
              of excited vibrational states
    E(rot)  - is the rotational thermal energy
    E(trans)- is the translational thermal energy

Summary of contributions to the inner energy U:
Electronic energy                ...   -400.86159347 Eh
Zero point energy                ...      0.13543561 Eh      84.99 kcal/mol
Thermal vibrational correction   ...      0.00419909 Eh       2.63 kcal/mol
Thermal rotational correction    ...      0.00141627 Eh       0.89 kcal/mol
Thermal translational correction ...      0.00141627 Eh       0.89 kcal/mol
-----------------------------------------------------------------------
Total thermal energy                   -400.71912623 Eh

Summary of corrections to the electronic energy:
(perhaps to be used in another calculation)
Total thermal correction                  0.00703163 Eh       4.41 kcal/mol
Non-thermal (ZPE) correction              0.13543561 Eh      84.99 kcal/mol
-----------------------------------------------------------------------
Total correction                          0.14246724 Eh      89.40 kcal/mol

--------
ENTHALPY
--------

The enthalpy is H = U + kB*T
                kB is Boltzmann's constant
Total thermal energy              ...   -400.71912623 Eh
Thermal Enthalpy correction       ...      0.00094421 Eh       0.59 kcal/mol
-----------------------------------------------------------------------
Total Enthalpy                    ...   -400.71818202 Eh

Note: Rotational entropy computed according to Herzberg
Infrared and Raman Spectra, Chapter V,1, Van Nostrand Reinhold, 1945
Point Group:  Cs, Symmetry Number:   1
Rotational constants in cm-1:     0.105894     0.041940     0.030042

Vibrational entropy computed according to the QRRHO of S. Grimme
Chem.Eur.J. 2012 18 9955 using a reference frequency of 100.0 cm-1

-------
ENTROPY
-------

The entropy contributions are T*S = T*(S(el)+S(vib)+S(rot)+S(trans))
     S(el)   - electronic entropy
     S(vib)  - vibrational entropy
     S(rot)  - rotational entropy
     S(trans)- translational entropy
The entropies will be listed as multiplied by the temperature to get
units of energy

Electronic entropy                ...      0.00065446 Eh      0.41 kcal/mol
Vibrational entropy               ...      0.00647300 Eh      4.06 kcal/mol
Rotational entropy                ...      0.01372280 Eh      8.61 kcal/mol
Translational entropy             ...      0.01923366 Eh     12.07 kcal/mol
-----------------------------------------------------------------------
Final entropy term                ...      0.04008392 Eh     25.15 kcal/mol

In case the symmetry of your molecule has not been determined correctly
or in case you have a reason to use a different symmetry number we print
out the resulting rotational entropy values for sn=1,12:

 non-linear molecules -----------------------------------
|  sn= 1 | S(rot)=       0.01372280 Eh      8.61 kcal/mol|
|  sn= 2 | S(rot)=       0.01306835 Eh      8.20 kcal/mol|
|  sn= 3 | S(rot)=       0.01268551 Eh      7.96 kcal/mol|
|  sn= 4 | S(rot)=       0.01241389 Eh      7.79 kcal/mol|
|  sn= 5 | S(rot)=       0.01220320 Eh      7.66 kcal/mol|
|  sn= 6 | S(rot)=       0.01203106 Eh      7.55 kcal/mol|
|  sn= 7 | S(rot)=       0.01188551 Eh      7.46 kcal/mol|
|  sn= 8 | S(rot)=       0.01175943 Eh      7.38 kcal/mol|
|  sn= 9 | S(rot)=       0.01164823 Eh      7.31 kcal/mol|
|  sn=10 | S(rot)=       0.01154875 Eh      7.25 kcal/mol|
|  sn=11 | S(rot)=       0.01145876 Eh      7.19 kcal/mol|
|  sn=12 | S(rot)=       0.01137660 Eh      7.14 kcal/mol|
 linear molecules ---------------------------------------
|  Dinfh | S(rot)=       0.00863532 Eh      5.42 kcal/mol|
|  Cinfv | S(rot)=       0.00928978 Eh      5.83 kcal/mol|
 --------------------------------------------------------

-------------------

                             ****ORCA TERMINATED NORMALLY****
TOTAL RUN TIME: 0 days 0 hours 12 minutes 26 seconds 875 msec
