                         Program Version 6.0.0  -   RELEASE  -
|  1> !r2SCAN aug-cc-pVTZ d3 TightSCF SlowConv RIJCOSX defgrid2
|  2>
|  3> %pal
|  4> nprocs 15
|  5> end
|  6>
|  7> %scf
|  8> MaxIter 1500
|  9> end
| 10>
| 11> %maxcore 3500
| 12>
| 13> !CPCM
| 14> %cpcm smd true
| 15> SMDsolvent "WATER"
| 16> surfacetype gepol_ses
| 17> rsolv 1.40
| 18> end
| 19>
| 20> * xyz -1 2
| 21> C          -0.71119473453608     -1.27753769603753     -1.66469193495667
| 22> C          -0.84757971737407     -1.37051300939389      2.56012596471587
| 23> C           0.17600407523538     -0.66718968097552      3.30203602345821
| 24> C           0.07441786205000     -0.73736210099662      4.72686229958031
| 25> C          -0.95819946382070     -1.44732964560191      5.30922921995402
| 26> C          -1.89246898961745     -2.08918221632698      4.48282869513414
| 27> N          -1.82946922247699     -2.04538372747969      3.14996632780079
| 28> H           0.82375813463839     -0.22230666320522      5.33950916179957
| 29> H          -1.05139748109670     -1.51180696271490      6.40034489381934
| 30> H          -2.72424323526883     -2.66100937066717      4.91891129019417
| 31> C          -0.79539610804297     -1.33457211558685      1.08568997656786
| 32> C           0.27704054129144     -0.59784286447255      0.45308262509050
| 33> C           0.27660122861131     -0.59863568883798     -0.97709504218512
| 34> C          -1.70061257174833     -1.95699542487128     -0.93863375126110
| 35> N          -1.73203419494814     -1.97823597597462      0.39590607204878
| 36> H           1.06664268699891     -0.05607062090082     -1.50961690897062
| 37> H          -0.72694279099019     -1.28881726054281     -2.76150198645861
| 38> H          -2.49859691297974     -2.50535045021093     -1.45973231485977
| 39> C           1.19223786884036      0.03130278829810      2.63097992514689
| 40> C           1.24199802211239      0.06547304417526      1.22748014190895
| 41> H           1.95294993788081      0.55389136062698      3.22288120162125
| 42> H           2.04173228124121      0.61487911869694      0.71689035185124
| 43> *
| 44>
| 45>                          ****END OF INPUT****

CARTESIAN COORDINATES (ANGSTROEM)
---------------------------------
  C     -0.711195   -1.277538   -1.664692
  C     -0.847580   -1.370513    2.560126
  C      0.176004   -0.667190    3.302036
  C      0.074418   -0.737362    4.726862
  C     -0.958199   -1.447330    5.309229
  C     -1.892469   -2.089182    4.482829
  N     -1.829469   -2.045384    3.149966
  H      0.823758   -0.222307    5.339509
  H     -1.051397   -1.511807    6.400345
  H     -2.724243   -2.661009    4.918911
  C     -0.795396   -1.334572    1.085690
  C      0.277041   -0.597843    0.453083
  C      0.276601   -0.598636   -0.977095
  C     -1.700613   -1.956995   -0.938634
  N     -1.732034   -1.978236    0.395906
  H      1.066643   -0.056071   -1.509617
  H     -0.726943   -1.288817   -2.761502
  H     -2.498597   -2.505350   -1.459732
  C      1.192238    0.031303    2.630980
  C      1.241998    0.065473    1.227480
  H      1.952950    0.553891    3.222881
  H      2.041732    0.614879    0.716890

 Total Charge           Charge          ....   -1
 Multiplicity           Mult            ....    2
 Number of Electrons    NEL             ....   95
 Basis Dimension        Dim             ....  828

ORBITAL ENERGIES
----------------
                 SPIN UP ORBITALS
  NO   OCC          E(Eh)            E(eV)
   0   1.0000     -14.137706      -384.7066
   1   1.0000     -14.137682      -384.7059
   2   1.0000     -10.057142      -273.6687
   3   1.0000     -10.056916      -273.6626
   4   1.0000     -10.043009      -273.2842
   5   1.0000     -10.042995      -273.2838
   6   1.0000     -10.033110      -273.0148
   7   1.0000     -10.033078      -273.0139
   8   1.0000     -10.028520      -272.8899
   9   1.0000     -10.028455      -272.8881
  10   1.0000     -10.027796      -272.8702
  11   1.0000     -10.027748      -272.8689
  12   1.0000     -10.011655      -272.4310
  13   1.0000     -10.011238      -272.4196
  14   1.0000      -0.901574       -24.5331
  15   1.0000      -0.878467       -23.9043
  16   1.0000      -0.786513       -21.4021
  17   1.0000      -0.750399       -20.4194
  18   1.0000      -0.745730       -20.2923
  19   1.0000      -0.695642       -18.9294
  20   1.0000      -0.681173       -18.5357
  21   1.0000      -0.598936       -16.2979
  22   1.0000      -0.596748       -16.2383
  23   1.0000      -0.572815       -15.5871
  24   1.0000      -0.543420       -14.7872
  25   1.0000      -0.500855       -13.6290
  26   1.0000      -0.476402       -12.9635
  27   1.0000      -0.456082       -12.4106
  28   1.0000      -0.429048       -11.6750
  29   1.0000      -0.428433       -11.6583
  30   1.0000      -0.410845       -11.1796
  31   1.0000      -0.386701       -10.5227
  32   1.0000      -0.379138       -10.3169
  33   1.0000      -0.360317        -9.8047
  34   1.0000      -0.351241        -9.5577
  35   1.0000      -0.351097        -9.5538
  36   1.0000      -0.350460        -9.5365
  37   1.0000      -0.341817        -9.3013
  38   1.0000      -0.316441        -8.6108
  39   1.0000      -0.302586        -8.2338
  40   1.0000      -0.295432        -8.0391
  41   1.0000      -0.269250        -7.3267
  42   1.0000      -0.262906        -7.1540
  43   1.0000      -0.218177        -5.9369
  44   1.0000      -0.215688        -5.8692
  45   1.0000      -0.201675        -5.4878
  46   1.0000      -0.197513        -5.3746
  47   1.0000      -0.081956        -2.2301
  48   0.0000      -0.065792        -1.7903
  49   0.0000      -0.025857        -0.7036
  50   0.0000       0.000479         0.0130
  51   0.0000       0.004591         0.1249
  52   0.0000       0.016611         0.4520

                 SPIN DOWN ORBITALS
  NO   OCC          E(Eh)            E(eV)
   0   1.0000     -14.137584      -384.7032
   1   1.0000     -14.137562      -384.7026
   2   1.0000     -10.056506      -273.6514
   3   1.0000     -10.056281      -273.6453
   4   1.0000     -10.039397      -273.1859
   5   1.0000     -10.039378      -273.1854
   6   1.0000     -10.033113      -273.0149
   7   1.0000     -10.033084      -273.0141
   8   1.0000     -10.029316      -272.9116
   9   1.0000     -10.029271      -272.9103
  10   1.0000     -10.025019      -272.7946
  11   1.0000     -10.024953      -272.7928
  12   1.0000     -10.008606      -272.3480
  13   1.0000     -10.008188      -272.3366
  14   1.0000      -0.899417       -24.4744
  15   1.0000      -0.876152       -23.8413
  16   1.0000      -0.781930       -21.2774
  17   1.0000      -0.746685       -20.3183
  18   1.0000      -0.742593       -20.2070
  19   1.0000      -0.692812       -18.8524
  20   1.0000      -0.675516       -18.3817
  21   1.0000      -0.596886       -16.2421
  22   1.0000      -0.588982       -16.0270
  23   1.0000      -0.570434       -15.5223
  24   1.0000      -0.540567       -14.7096
  25   1.0000      -0.497296       -13.5321
  26   1.0000      -0.474598       -12.9145
  27   1.0000      -0.454714       -12.3734
  28   1.0000      -0.427096       -11.6219
  29   1.0000      -0.426742       -11.6122
  30   1.0000      -0.409667       -11.1476
  31   1.0000      -0.380100       -10.3430
  32   1.0000      -0.378537       -10.3005
  33   1.0000      -0.358979        -9.7683
  34   1.0000      -0.349902        -9.5213
  35   1.0000      -0.349488        -9.5100
  36   1.0000      -0.342032        -9.3072
  37   1.0000      -0.340373        -9.2620
  38   1.0000      -0.314819        -8.5667
  39   1.0000      -0.294104        -8.0030
  40   1.0000      -0.288404        -7.8479
  41   1.0000      -0.261853        -7.1254
  42   1.0000      -0.251164        -6.8345
  43   1.0000      -0.215290        -5.8583
  44   1.0000      -0.213588        -5.8120
  45   1.0000      -0.201431        -5.4812
  46   1.0000      -0.179742        -4.8910
  47   0.0000      -0.060411        -1.6439
  48   0.0000      -0.054480        -1.4825
  49   0.0000      -0.014449        -0.3932
  50   0.0000       0.006177         0.1681
  51   0.0000       0.008261         0.2248

MULLIKEN ATOMIC CHARGES AND SPIN POPULATIONS
--------------------------------------------
   0 C :   -0.197125   -0.148741
   1 C :    1.009993    0.052546
   2 C :    2.072656   -0.045962
   3 C :   -1.278313    0.247641
   4 C :   -0.194978   -0.148942
   5 C :   -1.024624    0.271228
   6 N :   -0.827201   -0.020174
   7 H :    0.276158    0.007962
   8 H :    0.236932   -0.012735
   9 H :    0.573077    0.007682
  10 C :    1.009645    0.053110
  11 C :    2.066653   -0.046154
  12 C :   -1.273308    0.247291
  13 C :   -1.018617    0.270836
  14 N :   -0.823728   -0.020345
  15 H :    0.281481    0.007847
  16 H :    0.236254   -0.012606
  17 H :    0.571433    0.007567
  18 C :   -1.369822    0.150790
  19 C :   -1.370280    0.151958
  20 H :    0.020097   -0.010287
  21 H :    0.023616   -0.010511
Sum of atomic charges         :   -1.0000000

LOEWDIN ATOMIC CHARGES AND SPIN POPULATIONS
-------------------------------------------
   0 C :    0.150507    0.022686
   1 C :   -0.316187    0.018020
   2 C :   -0.171827    0.053678
   3 C :    0.178657    0.093492
   4 C :    0.150478    0.022771
   5 C :   -0.047158    0.104171
   6 N :    0.316414    0.031467
   7 H :   -0.176811    0.019784
   8 H :   -0.181826   -0.005715
   9 H :   -0.211770    0.025488
  10 C :   -0.316109    0.018051
  11 C :   -0.171525    0.053646
  12 C :    0.179061    0.093371
  13 C :   -0.047079    0.103952
  14 N :    0.316540    0.031272
  15 H :   -0.176580    0.019762
  16 H :   -0.181855   -0.005719
  17 H :   -0.211764    0.025444
  18 C :    0.153063    0.117966
  19 C :    0.153269    0.118187
  20 H :   -0.193842    0.019076
  21 H :   -0.193658    0.019148

  Mayer bond orders larger than 0.100000
B(  0-C , 11-C ) :  -0.1708 B(  0-C , 12-C ) :   1.1707 B(  0-C , 13-C ) :   0.4931
B(  0-C , 14-N ) :  -0.2093 B(  0-C , 16-H ) :   1.0076 B(  1-C ,  2-C ) :   0.6460
B(  1-C ,  3-C ) :   0.7139 B(  1-C ,  5-C ) :  -0.2170 B(  1-C ,  6-N ) :  -0.7124
B(  1-C ,  9-H ) :   0.2282 B(  1-C , 10-C ) :   0.4367 B(  1-C , 11-C ) :   0.4102
B(  1-C , 12-C ) :  -0.1193 B(  1-C , 14-N ) :   0.2439 B(  1-C , 18-C ) :  -0.4278
B(  1-C , 19-C ) :  -0.1145 B(  2-C ,  3-C ) :  -0.6907 B(  2-C ,  4-C ) :  -0.1738
B(  2-C ,  5-C ) :  -0.6434 B(  2-C ,  9-H ) :   0.1276 B(  2-C , 10-C ) :   0.4147
B(  2-C , 11-C ) :  -0.3582 B(  2-C , 13-C ) :  -0.1530 B(  2-C , 18-C ) :  -0.5149
B(  2-C , 20-H ) :  -0.2400 B(  3-C ,  4-C ) :   1.1737 B(  3-C ,  5-C ) :   0.5822
B(  3-C ,  7-H ) :   0.9360 B(  3-C ,  9-H ) :  -0.1227 B(  3-C , 10-C ) :  -0.1195
B(  3-C , 18-C ) :   0.5040 B(  4-C ,  5-C ) :   0.4892 B(  4-C ,  6-N ) :  -0.2093
B(  4-C ,  8-H ) :   1.0057 B(  5-C ,  6-N ) :   1.8580 B(  5-C ,  7-H ) :  -0.1244
B(  5-C ,  9-H ) :   0.2821 B(  5-C , 11-C ) :  -0.1539 B(  5-C , 19-C ) :   0.1664
B(  6-N , 10-C ) :   0.2349 B(  6-N , 14-N ) :  -0.2686 B( 10-C , 11-C ) :   0.6490
B( 10-C , 12-C ) :   0.7140 B( 10-C , 13-C ) :  -0.2152 B( 10-C , 14-N ) :  -0.7131
B( 10-C , 17-H ) :   0.2288 B( 10-C , 18-C ) :  -0.1121 B( 10-C , 19-C ) :  -0.4202
B( 11-C , 12-C ) :  -0.6705 B( 11-C , 13-C ) :  -0.6417 B( 11-C , 17-H ) :   0.1286
B( 11-C , 19-C ) :  -0.5217 B( 11-C , 21-H ) :  -0.2407 B( 12-C , 13-C ) :   0.5794
B( 12-C , 15-H ) :   0.9255 B( 12-C , 17-H ) :  -0.1236 B( 12-C , 19-C ) :   0.5037
B( 13-C , 14-N ) :   1.8481 B( 13-C , 15-H ) :  -0.1258 B( 13-C , 17-H ) :   0.2856
B( 13-C , 18-C ) :   0.1659 B( 18-C , 19-C ) :   0.9265 B( 18-C , 20-H ) :   1.5505
B( 19-C , 21-H ) :   1.5453

Dispersion correction           -0.008957079
FINAL SINGLE POINT ENERGY      -571.593570337363

DIPOLE MOMENT
-------------

Method             : SCF
Type of density    : Electron Density
Multiplicity       :   2
Irrep              :   0
Energy             :  -571.5846132579175674 Eh
Relativity type    :
Basis              : AO
                                X                 Y                 Z
Electronic contribution:     -1.606062123      -1.102253975      -0.089978223
Nuclear contribution   :      2.898055306       1.988769949       0.150906317
                        -----------------------------------------
Total Dipole Moment    :      1.291993184       0.886515974       0.060928094
                        -----------------------------------------
Magnitude (a.u.)       :      1.568078184
Magnitude (Debye)      :      3.985737992

Rotational constants in cm-1:             0.053930             0.019113             0.014112
Rotational constants in MHz :          1616.774375           573.004447           423.065068

                             ****ORCA TERMINATED NORMALLY****
TOTAL RUN TIME: 0 days 0 hours 17 minutes 22 seconds 59 msec
