                         Program Version 6.0.0  -   RELEASE  -
|  1> !PBE0 freq def2-SV(p) d3 TightSCF SlowConv RIJCOSX defgrid2
|  2>
|  3> %pal
|  4> nprocs 12
|  5> end
|  6>
|  7> %scf
|  8> MaxIter 1500
|  9> end
| 10>
| 11> %maxcore 5000
| 12>
| 13> !CPCM
| 14> %cpcm smd true
| 15> SMDsolvent "MeCN"
| 16> surfacetype gepol_ses
| 17> rsolv 2.19
| 18> end
| 19>
| 20> * xyz 0 1
| 21> C          -0.72645263145057     -1.03146408124208      0.00085540923204
| 22> C          -1.31849164506042      0.23994274063843      0.00076913015470
| 23> C          -0.49775006454032      1.38095947722163      0.00030230653566
| 24> C           0.88089580584931      1.25555807012067     -0.00006874067329
| 25> C           1.48820871260868     -0.01677540625312      0.00004021786721
| 26> C           0.66039799692030     -1.15035536474234      0.00053736247754
| 27> H           1.11014252217210     -2.14689324616929      0.00020395157210
| 28> C           2.91106969107518     -0.14797115303502     -0.00086204206870
| 29> C           4.12173321750396     -0.25813931353825      0.00029604415769
| 30> H           5.19579367536718     -0.35502269213131     -0.00111050268717
| 31> H           1.50617758544874      2.15233079151561     -0.00068846249924
| 32> H          -0.97128025908237      2.36628542923478      0.00038570069437
| 33> O          -2.64060324258881      0.45822055677923      0.00106506064239
| 34> C          -3.51665442843025     -0.64458669136032     -0.00042583710353
| 35> H          -4.53553856002156     -0.22977900613411     -0.00113706114268
| 36> H          -3.38179888009198     -1.26848121481963     -0.90291592890065
| 37> H          -3.38378828350939     -1.26974647265656      0.90151128518317
| 38> H          -1.33630311216980     -1.93662362342831      0.00142430655838
| 39> *
| 40>
| 41>                          ****END OF INPUT****

CARTESIAN COORDINATES (ANGSTROEM)
---------------------------------
  C     -0.726453   -1.031464    0.000855
  C     -1.318492    0.239943    0.000769
  C     -0.497750    1.380959    0.000302
  C      0.880896    1.255558   -0.000069
  C      1.488209   -0.016775    0.000040
  C      0.660398   -1.150355    0.000537
  H      1.110143   -2.146893    0.000204
  C      2.911070   -0.147971   -0.000862
  C      4.121733   -0.258139    0.000296
  H      5.195794   -0.355023   -0.001111
  H      1.506178    2.152331   -0.000688
  H     -0.971280    2.366285    0.000386
  O     -2.640603    0.458221    0.001065
  C     -3.516654   -0.644587   -0.000426
  H     -4.535539   -0.229779   -0.001137
  H     -3.381799   -1.268481   -0.902916
  H     -3.383788   -1.269746    0.901511
  H     -1.336303   -1.936624    0.001424

 Total Charge           Charge          ....    0
 Multiplicity           Mult            ....    1
 Number of Electrons    NEL             ....   70
 Basis Dimension        Dim             ....  156

ORBITAL ENERGIES
----------------

  NO   OCC          E(Eh)            E(eV)
   0   2.0000     -19.249334      -523.8010
   1   2.0000     -10.306650      -280.4582
   2   2.0000     -10.272249      -279.5221
   3   2.0000     -10.262460      -279.2557
   4   2.0000     -10.248857      -278.8856
   5   2.0000     -10.248079      -278.8644
   6   2.0000     -10.247672      -278.8533
   7   2.0000     -10.239185      -278.6224
   8   2.0000     -10.237694      -278.5818
   9   2.0000     -10.235047      -278.5098
  10   2.0000      -1.099995       -29.9324
  11   2.0000      -0.887745       -24.1568
  12   2.0000      -0.806161       -21.9368
  13   2.0000      -0.775155       -21.0930
  14   2.0000      -0.754596       -20.5336
  15   2.0000      -0.713001       -19.4017
  16   2.0000      -0.637740       -17.3538
  17   2.0000      -0.621694       -16.9171
  18   2.0000      -0.567346       -15.4383
  19   2.0000      -0.546702       -14.8765
  20   2.0000      -0.512953       -13.9582
  21   2.0000      -0.510196       -13.8832
  22   2.0000      -0.487917       -13.2769
  23   2.0000      -0.461477       -12.5574
  24   2.0000      -0.443237       -12.0611
  25   2.0000      -0.432500       -11.7689
  26   2.0000      -0.408846       -11.1253
  27   2.0000      -0.408347       -11.1117
  28   2.0000      -0.379413       -10.3244
  29   2.0000      -0.362364        -9.8604
  30   2.0000      -0.342137        -9.3100
  31   2.0000      -0.307120        -8.3572
  32   2.0000      -0.298512        -8.1229
  33   2.0000      -0.279106        -7.5949
  34   2.0000      -0.232067        -6.3149
  35   0.0000      -0.027165        -0.7392
  36   0.0000      -0.011825        -0.3218
  37   0.0000       0.046888         1.2759
  38   0.0000       0.084338         2.2949
  39   0.0000       0.091452         2.4885

MULLIKEN ATOMIC CHARGES
-----------------------
   0 C :   -0.247836
   1 C :    0.281689
   2 C :   -0.177067
   3 C :   -0.111089
   4 C :   -0.033590
   5 C :   -0.108869
   6 H :    0.124102
   7 C :    0.349296
   8 C :   -0.583354
   9 H :    0.168627
  10 H :    0.124882
  11 H :    0.119132
  12 O :   -0.329034
  13 C :   -0.182408
  14 H :    0.165144
  15 H :    0.153488
  16 H :    0.153534
  17 H :    0.133352
Sum of atomic charges:    0.0000000

LOEWDIN ATOMIC CHARGES
----------------------
   0 C :   -0.183554
   1 C :    0.041765
   2 C :   -0.158254
   3 C :   -0.100285
   4 C :   -0.100172
   5 C :   -0.096239
   6 H :    0.149699
   7 C :   -0.039441
   8 C :   -0.215657
   9 H :    0.180382
  10 H :    0.149858
  11 H :    0.149026
  12 O :   -0.107990
  13 C :   -0.204614
  14 H :    0.133905
  15 H :    0.124106
  16 H :    0.124134
  17 H :    0.153329

  Mayer bond orders larger than 0.100000
B(  0-C ,  1-C ) :   1.2876 B(  0-C ,  5-C ) :   1.3761 B(  0-C , 17-H ) :   0.9591
B(  1-C ,  2-C ) :   1.3194 B(  1-C , 12-O ) :   1.1401 B(  2-C ,  3-C ) :   1.4157
B(  2-C , 11-H ) :   0.9644 B(  3-C ,  4-C ) :   1.3127 B(  3-C , 10-H ) :   0.9661
B(  4-C ,  5-C ) :   1.3512 B(  4-C ,  7-C ) :   0.9991 B(  5-C ,  6-H ) :   0.9641
B(  7-C ,  8-C ) :   2.3746 B(  8-C ,  9-H ) :   1.0304 B( 12-O , 13-C ) :   0.9315
B( 13-C , 14-H ) :   0.9525 B( 13-C , 15-H ) :   0.9401 B( 13-C , 16-H ) :   0.9401

Dispersion correction           -0.015941202
FINAL SINGLE POINT ENERGY      -422.123580420069

DIPOLE MOMENT
-------------

Method             : SCF
Type of density    : Electron Density
Multiplicity       :   1
Irrep              :   0
Energy             :  -422.1076392183015855 Eh
Relativity type    :
Basis              : AO
                                X                 Y                 Z
Electronic contribution:      4.467939818       1.929970862       0.002799830
Nuclear contribution   :     -5.476686099      -2.523144308      -0.003990045
                        -----------------------------------------
Total Dipole Moment    :     -1.008746281      -0.593173446      -0.001190215
                        -----------------------------------------
Magnitude (a.u.)       :      1.170224428
Magnitude (Debye)      :      2.974474112

VIBRATIONAL FREQUENCIES
-----------------------

Scaling factor for frequencies =  1.000000000  (already applied!)

     0:       0.00 cm**-1
     1:       0.00 cm**-1
     2:       0.00 cm**-1
     3:       0.00 cm**-1
     4:       0.00 cm**-1
     5:       0.00 cm**-1
     6:      71.41 cm**-1
     7:     127.04 cm**-1
     8:     132.78 cm**-1
     9:     219.70 cm**-1
    10:     259.43 cm**-1
    11:     281.70 cm**-1
    12:     390.15 cm**-1
    13:     426.51 cm**-1
    14:     475.54 cm**-1
    15:     502.33 cm**-1
    16:     547.48 cm**-1
    17:     565.48 cm**-1
    18:     641.87 cm**-1
    19:     651.90 cm**-1
    20:     708.77 cm**-1
    21:     711.40 cm**-1
    22:     754.91 cm**-1
    23:     831.97 cm**-1
    24:     848.93 cm**-1
    25:     863.00 cm**-1
    26:     981.45 cm**-1
    27:     994.31 cm**-1
    28:    1022.23 cm**-1
    29:    1079.63 cm**-1
    30:    1120.82 cm**-1
    31:    1176.87 cm**-1
    32:    1178.72 cm**-1
    33:    1213.13 cm**-1
    34:    1248.16 cm**-1
    35:    1315.30 cm**-1
    36:    1334.95 cm**-1
    37:    1381.44 cm**-1
    38:    1460.93 cm**-1
    39:    1466.56 cm**-1
    40:    1473.66 cm**-1
    41:    1480.13 cm**-1
    42:    1567.36 cm**-1
    43:    1640.62 cm**-1
    44:    1696.86 cm**-1
    45:    2220.74 cm**-1
    46:    3029.57 cm**-1
    47:    3117.87 cm**-1
    48:    3174.61 cm**-1
    49:    3212.45 cm**-1
    50:    3215.18 cm**-1
    51:    3227.02 cm**-1
    52:    3239.13 cm**-1
    53:    3448.83 cm**-1

IR SPECTRUM
-----------

 Mode   freq       eps      Int      T**2         TX        TY        TZ
       cm**-1   L/(mol*cm) km/mol    a.u.
----------------------------------------------------------------------------
  6:     71.41   0.000533    2.69  0.002329  ( 0.000183  0.000504 -0.048257)
  7:    127.04   0.000327    1.65  0.000803  (-0.000915  0.002251  0.028234)
  8:    132.78   0.000408    2.06  0.000959  ( 0.009020 -0.029533  0.002231)
  9:    219.70   0.000280    1.42  0.000398  ( 0.000593  0.000049 -0.019949)
 10:    259.43   0.000593    3.00  0.000713  (-0.026656 -0.000949 -0.001410)
 11:    281.70   0.001909    9.65  0.002115  (-0.000316  0.000039  0.045983)
 12:    390.15   0.000276    1.40  0.000221  (-0.013664  0.005871 -0.000009)
 13:    426.51   0.000011    0.05  0.000008  (-0.000133  0.000099 -0.002816)
 14:    475.54   0.001598    8.07  0.001049  (-0.000131  0.000160 -0.032380)
 15:    502.33   0.002694   13.62  0.001674  ( 0.032743 -0.024528  0.000091)
 16:    547.48   0.001477    7.46  0.000842  (-0.015663 -0.024418  0.000345)
 17:    565.48   0.002576   13.02  0.001421  (-0.000106  0.000247  0.037700)
 18:    641.87   0.013482   68.13  0.006555  ( 0.000226  0.002765 -0.080914)
 19:    651.90   0.001444    7.30  0.000691  ( 0.003018  0.025968  0.002806)
 20:    708.77   0.008025   40.55  0.003533  ( 0.030242  0.051137  0.001878)
 21:    711.40   0.008158   41.23  0.003579  ( 0.039347 -0.045048 -0.001028)
 22:    754.91   0.000000    0.00  0.000000  (-0.000051 -0.000100  0.000189)
 23:    831.97   0.000950    4.80  0.000356  (-0.000121 -0.000050  0.018876)
 24:    848.93   0.000644    3.26  0.000237  (-0.010387  0.011358  0.000095)
 25:    863.00   0.020886  105.55  0.007552  ( 0.000064 -0.000095 -0.086905)
 26:    981.45   0.000000    0.00  0.000000  ( 0.000127  0.000191 -0.000084)
 27:    994.31   0.000001    0.00  0.000000  ( 0.000027 -0.000444  0.000250)
 28:   1022.23   0.000175    0.88  0.000053  ( 0.007211 -0.001160 -0.000167)
 29:   1079.63   0.024558  124.10  0.007098  (-0.066273 -0.052022 -0.000010)
 30:   1120.82   0.005722   28.92  0.001593  ( 0.009108 -0.038861 -0.000032)
 31:   1176.87   0.000378    1.91  0.000100  ( 0.007013  0.000869  0.007097)
 32:   1178.72   0.011360   57.41  0.003007  (-0.054090 -0.008999  0.000880)
 33:   1213.13   0.000619    3.13  0.000159  (-0.006665 -0.010720  0.000043)
 34:   1248.16   0.000187    0.94  0.000047  (-0.004539 -0.005102 -0.000034)
 35:   1315.30   0.000331    1.67  0.000079  (-0.001328 -0.008763 -0.000003)
 36:   1334.95   0.095631  483.28  0.022355  ( 0.148661  0.015966  0.000069)
 37:   1381.44   0.015189   76.76  0.003431  (-0.056944 -0.013734 -0.000057)
 38:   1460.93   0.003129   15.81  0.000668  (-0.003386  0.000153  0.025629)
 39:   1466.56   0.017139   86.61  0.003647  ( 0.060148 -0.005239  0.001307)
 40:   1473.66   0.000782    3.95  0.000166  (-0.010856  0.006882  0.000619)
 41:   1480.13   0.000839    4.24  0.000177  (-0.012490  0.004531 -0.000518)
 42:   1567.36   0.063012  318.44  0.012546  (-0.111908 -0.004729  0.000031)
 43:   1640.62   0.005970   30.17  0.001135  ( 0.025574 -0.021942 -0.000006)
 44:   1696.86   0.050548  255.45  0.009296  (-0.096332 -0.004028  0.000011)
 45:   2220.74   0.012944   65.41  0.001819  (-0.042589  0.002257 -0.000011)
 46:   3029.57   0.015761   79.65  0.001623  ( 0.033502  0.022383  0.000195)
 47:   3117.87   0.006758   34.15  0.000676  (-0.000121 -0.000162 -0.026006)
 48:   3174.61   0.003415   17.26  0.000336  ( 0.016721 -0.007487 -0.000011)
 49:   3212.45   0.001165    5.89  0.000113  ( 0.010567  0.001232  0.000033)
 50:   3215.18   0.000921    4.65  0.000089  ( 0.004556 -0.008284  0.000034)
 51:   3227.02   0.000795    4.02  0.000077  ( 0.002394 -0.008433  0.000019)
 52:   3239.13   0.000624    3.16  0.000060  ( 0.007489  0.002016 -0.000034)
 53:   3448.83   0.041678  210.62  0.003771  (-0.061224  0.004781  0.000083)

--------------------------
THERMOCHEMISTRY AT 298.15K
--------------------------

Temperature         ...   298.15 K
Pressure            ...     1.00 atm
Total Mass          ...   132.16 AMU
Quasi RRHO          ...     True
Cut-Off Frequency   ...     1.00 cm^-1

Throughout the following assumptions are being made:
  (1) The electronic state is orbitally nondegenerate
  (2) There are no thermally accessible electronically excited states
  (3) Hindered rotations indicated by low frequency modes are not
      treated as such but are treated as vibrations and this may
      cause some error
  (4) All equations used are the standard statistical mechanics
      equations for an ideal gas
  (5) All vibrations are strictly harmonic

freq.      71.41  E(vib)   ...       0.50
freq.     127.04  E(vib)   ...       0.43
freq.     132.78  E(vib)   ...       0.42
freq.     219.70  E(vib)   ...       0.33
freq.     259.43  E(vib)   ...       0.30
freq.     281.70  E(vib)   ...       0.28
freq.     390.15  E(vib)   ...       0.20
freq.     426.51  E(vib)   ...       0.18
freq.     475.54  E(vib)   ...       0.15
freq.     502.33  E(vib)   ...       0.14
freq.     547.48  E(vib)   ...       0.12
freq.     565.48  E(vib)   ...       0.11
freq.     641.87  E(vib)   ...       0.09
freq.     651.90  E(vib)   ...       0.08
freq.     708.77  E(vib)   ...       0.07
freq.     711.40  E(vib)   ...       0.07
freq.     754.91  E(vib)   ...       0.06
freq.     831.97  E(vib)   ...       0.04
freq.     848.93  E(vib)   ...       0.04
freq.     863.00  E(vib)   ...       0.04
freq.     981.45  E(vib)   ...       0.02
freq.     994.31  E(vib)   ...       0.02
freq.    1022.23  E(vib)   ...       0.02
freq.    1079.63  E(vib)   ...       0.02
freq.    1120.82  E(vib)   ...       0.01
freq.    1176.87  E(vib)   ...       0.01
freq.    1178.72  E(vib)   ...       0.01
freq.    1213.13  E(vib)   ...       0.01
freq.    1248.16  E(vib)   ...       0.01
freq.    1315.30  E(vib)   ...       0.01
freq.    1334.95  E(vib)   ...       0.01
freq.    1381.44  E(vib)   ...       0.01
freq.    1460.93  E(vib)   ...       0.00
freq.    1466.56  E(vib)   ...       0.00
freq.    1473.66  E(vib)   ...       0.00
freq.    1480.13  E(vib)   ...       0.00
freq.    1567.36  E(vib)   ...       0.00
freq.    1640.62  E(vib)   ...       0.00
freq.    1696.86  E(vib)   ...       0.00
freq.    2220.74  E(vib)   ...       0.00
freq.    3029.57  E(vib)   ...       0.00
freq.    3117.87  E(vib)   ...       0.00
freq.    3174.61  E(vib)   ...       0.00
freq.    3212.45  E(vib)   ...       0.00
freq.    3215.18  E(vib)   ...       0.00
freq.    3227.02  E(vib)   ...       0.00
freq.    3239.13  E(vib)   ...       0.00
freq.    3448.83  E(vib)   ...       0.00

------------
INNER ENERGY
------------

The inner energy is: U= E(el) + E(ZPE) + E(vib) + E(rot) + E(trans)
    E(el)   - is the total energy from the electronic structure calculation
              = E(kin-el) + E(nuc-el) + E(el-el) + E(nuc-nuc)
    E(ZPE)  - the the zero temperature vibrational energy from the frequency calculation
    E(vib)  - the the finite temperature correction to E(ZPE) due to population
              of excited vibrational states
    E(rot)  - is the rotational thermal energy
    E(trans)- is the translational thermal energy

Summary of contributions to the inner energy U:
Electronic energy                ...   -422.12358042 Eh
Zero point energy                ...      0.14291136 Eh      89.68 kcal/mol
Thermal vibrational correction   ...      0.00610198 Eh       3.83 kcal/mol
Thermal rotational correction    ...      0.00141627 Eh       0.89 kcal/mol
Thermal translational correction ...      0.00141627 Eh       0.89 kcal/mol
-----------------------------------------------------------------------
Total thermal energy                   -421.97173453 Eh

Summary of corrections to the electronic energy:
(perhaps to be used in another calculation)
Total thermal correction                  0.00893453 Eh       5.61 kcal/mol
Non-thermal (ZPE) correction              0.14291136 Eh      89.68 kcal/mol
-----------------------------------------------------------------------
Total correction                          0.15184589 Eh      95.28 kcal/mol

--------
ENTHALPY
--------

The enthalpy is H = U + kB*T
                kB is Boltzmann's constant
Total thermal energy              ...   -421.97173453 Eh
Thermal Enthalpy correction       ...      0.00094421 Eh       0.59 kcal/mol
-----------------------------------------------------------------------
Total Enthalpy                    ...   -421.97079032 Eh

Note: Only C1 symmetry has been detected, increase convergence thresholds
      if your molecule has a higher symmetry. Symmetry factor of 1.0 is
      used for the rotational entropy correction.

Note: Rotational entropy computed according to Herzberg
Infrared and Raman Spectra, Chapter V,1, Van Nostrand Reinhold, 1945
Point Group:  C1, Symmetry Number:   1
Rotational constants in cm-1:     0.161426     0.023537     0.020624

Vibrational entropy computed according to the QRRHO of S. Grimme
Chem.Eur.J. 2012 18 9955 using a reference frequency of 100.0 cm-1

-------
ENTROPY
-------

The entropy contributions are T*S = T*(S(el)+S(vib)+S(rot)+S(trans))
     S(el)   - electronic entropy
     S(vib)  - vibrational entropy
     S(rot)  - rotational entropy
     S(trans)- translational entropy
The entropies will be listed as multiplied by the temperature to get
units of energy

Electronic entropy                ...      0.00000000 Eh      0.00 kcal/mol
Vibrational entropy               ...      0.01016290 Eh      6.38 kcal/mol
Rotational entropy                ...      0.01397404 Eh      8.77 kcal/mol
Translational entropy             ...      0.01926618 Eh     12.09 kcal/mol
-----------------------------------------------------------------------
Final entropy term                ...      0.04340313 Eh     27.24 kcal/mol

In case the symmetry of your molecule has not been determined correctly
or in case you have a reason to use a different symmetry number we print
out the resulting rotational entropy values for sn=1,12:

 non-linear molecules -----------------------------------
|  sn= 1 | S(rot)=       0.01397404 Eh      8.77 kcal/mol|
|  sn= 2 | S(rot)=       0.01331959 Eh      8.36 kcal/mol|
|  sn= 3 | S(rot)=       0.01293675 Eh      8.12 kcal/mol|
|  sn= 4 | S(rot)=       0.01266513 Eh      7.95 kcal/mol|
|  sn= 5 | S(rot)=       0.01245444 Eh      7.82 kcal/mol|
|  sn= 6 | S(rot)=       0.01228230 Eh      7.71 kcal/mol|
|  sn= 7 | S(rot)=       0.01213675 Eh      7.62 kcal/mol|
|  sn= 8 | S(rot)=       0.01201067 Eh      7.54 kcal/mol|
|  sn= 9 | S(rot)=       0.01189947 Eh      7.47 kcal/mol|
|  sn=10 | S(rot)=       0.01179999 Eh      7.40 kcal/mol|
|  sn=11 | S(rot)=       0.01171000 Eh      7.35 kcal/mol|
|  sn=12 | S(rot)=       0.01162784 Eh      7.30 kcal/mol|

                             ****ORCA TERMINATED NORMALLY****
TOTAL RUN TIME: 0 days 0 hours 5 minutes 26 seconds 89 msec
