                         Program Version 6.0.0  -   RELEASE  -
|  1> !r2SCANh aug-cc-pVTZ d3 TightSCF SlowConv RIJCOSX defgrid2
|  2>
|  3> %pal
|  4> nprocs 4
|  5> end
|  6>
|  7> %scf
|  8> MaxIter 1500
|  9> end
| 10>
| 11> %maxcore 3000
| 12>
| 13> !CPCM
| 14> %cpcm smd true
| 15> SMDsolvent "MeCN"
| 16> surfacetype gepol_ses
| 17> rsolv 2.19
| 18> end
| 19>
| 20> * xyz -1 2
| 21> C           1.11485619102810      1.23346524770146     -0.04246013453408
| 22> C          -0.25819562047262      1.22933924261312     -0.01684176169193
| 23> C          -0.98793269131212      0.01064750984396      0.05369590147558
| 24> C          -0.25058397748058     -1.19914135084411      0.08408385170358
| 25> C           1.12686728083616     -1.19737445120311      0.05863833511697
| 26> C           1.88049207762006      0.02114016337723     -0.00784905676085
| 27> C           3.31422748057564      0.08999258300288     -0.03795740062188
| 28> O           3.95234377580661      1.16292200275802     -0.09390298789975
| 29> C           4.09411941134499     -1.22295178548747      0.00021080612150
| 30> H           3.89267162008921     -1.80863657997959      0.91865553015964
| 31> H           3.85410305658271     -1.88234976738815     -0.85682984004010
| 32> H           5.16792059393726     -0.97680478465363     -0.03317483614463
| 33> H           1.65189479450597     -2.15740095025540      0.09479003543363
| 34> H          -0.78941773964287     -2.15112643070549      0.13915861506264
| 35> C          -2.45525752462587      0.00050473870139     -0.00850205506014
| 36> F          -2.97297788080586     -0.04926536736079     -1.27295539154986
| 37> F          -3.00617659842767     -1.06434755608644      0.61734313114911
| 38> F          -3.01722345304082      1.10181905294511      0.53770926863957
| 39> H          -0.80650005596301      2.17740366385070     -0.04085176525521
| 40> H           1.67725065944470      2.17036951917034     -0.08706394530380
| 41> *
| 42>
| 43>                          ****END OF INPUT****

CARTESIAN COORDINATES (ANGSTROEM)
---------------------------------
  C      1.114856    1.233465   -0.042460
  C     -0.258196    1.229339   -0.016842
  C     -0.987933    0.010648    0.053696
  C     -0.250584   -1.199141    0.084084
  C      1.126867   -1.197374    0.058638
  C      1.880492    0.021140   -0.007849
  C      3.314227    0.089993   -0.037957
  O      3.952344    1.162922   -0.093903
  C      4.094119   -1.222952    0.000211
  H      3.892672   -1.808637    0.918656
  H      3.854103   -1.882350   -0.856830
  H      5.167921   -0.976805   -0.033175
  H      1.651895   -2.157401    0.094790
  H     -0.789418   -2.151126    0.139159
  C     -2.455258    0.000505   -0.008502
  F     -2.972978   -0.049265   -1.272955
  F     -3.006177   -1.064348    0.617343
  F     -3.017223    1.101819    0.537709
  H     -0.806500    2.177404   -0.040852
  H      1.677251    2.170370   -0.087064

 Total Charge           Charge          ....   -1
 Multiplicity           Mult            ....    2
 Number of Electrons    NEL             ....   97
 Basis Dimension        Dim             ....  759

ORBITAL ENERGIES
----------------
                 SPIN UP ORBITALS
  NO   OCC          E(Eh)            E(eV)
   0   1.0000     -24.693540      -671.9454
   1   1.0000     -24.693408      -671.9418
   2   1.0000     -24.685843      -671.7359
   3   1.0000     -19.048542      -518.3372
   4   1.0000     -10.389755      -282.7196
   5   1.0000     -10.185131      -277.1515
   6   1.0000     -10.150500      -276.2092
   7   1.0000     -10.149924      -276.1935
   8   1.0000     -10.149724      -276.1880
   9   1.0000     -10.143187      -276.0102
  10   1.0000     -10.138308      -275.8774
  11   1.0000     -10.134228      -275.7664
  12   1.0000     -10.128807      -275.6189
  13   1.0000      -1.305859       -35.5342
  14   1.0000      -1.221100       -33.2278
  15   1.0000      -1.211915       -32.9779
  16   1.0000      -0.982613       -26.7382
  17   1.0000      -0.844369       -22.9765
  18   1.0000      -0.770104       -20.9556
  19   1.0000      -0.733302       -19.9542
  20   1.0000      -0.710653       -19.3378
  21   1.0000      -0.676535       -18.4095
  22   1.0000      -0.618591       -16.8327
  23   1.0000      -0.590560       -16.0700
  24   1.0000      -0.568700       -15.4751
  25   1.0000      -0.558713       -15.2034
  26   1.0000      -0.540915       -14.7190
  27   1.0000      -0.521201       -14.1826
  28   1.0000      -0.451701       -12.2914
  29   1.0000      -0.449571       -12.2334
  30   1.0000      -0.444707       -12.1011
  31   1.0000      -0.431503       -11.7418
  32   1.0000      -0.419467       -11.4143
  33   1.0000      -0.407666       -11.0932
  34   1.0000      -0.404164       -10.9979
  35   1.0000      -0.403040       -10.9673
  36   1.0000      -0.395884       -10.7725
  37   1.0000      -0.390208       -10.6181
  38   1.0000      -0.386677       -10.5220
  39   1.0000      -0.364978        -9.9316
  40   1.0000      -0.353664        -9.6237
  41   1.0000      -0.350049        -9.5253
  42   1.0000      -0.331863        -9.0305
  43   1.0000      -0.318224        -8.6593
  44   1.0000      -0.301451        -8.2029
  45   1.0000      -0.249016        -6.7761
  46   1.0000      -0.244479        -6.6526
  47   1.0000      -0.204530        -5.5656
  48   1.0000      -0.103863        -2.8263
  49   0.0000      -0.010569        -0.2876
  50   0.0000       0.008418         0.2291
  51   0.0000       0.018463         0.5024
  52   0.0000       0.022724         0.6183
  53   0.0000       0.025462         0.6928

                 SPIN DOWN ORBITALS
  NO   OCC          E(Eh)            E(eV)
   0   1.0000     -24.693268      -671.9380
   1   1.0000     -24.693147      -671.9347
   2   1.0000     -24.684963      -671.7120
   3   1.0000     -19.042281      -518.1668
   4   1.0000     -10.389713      -282.7185
   5   1.0000     -10.181603      -277.0555
   6   1.0000     -10.150836      -276.2183
   7   1.0000     -10.150533      -276.2101
   8   1.0000     -10.145099      -276.0622
   9   1.0000     -10.141226      -275.9568
  10   1.0000     -10.136183      -275.8196
  11   1.0000     -10.131810      -275.7006
  12   1.0000     -10.129136      -275.6278
  13   1.0000      -1.305039       -35.5119
  14   1.0000      -1.220637       -33.2152
  15   1.0000      -1.210431       -32.9375
  16   1.0000      -0.972203       -26.4550
  17   1.0000      -0.839075       -22.8324
  18   1.0000      -0.761539       -20.7225
  19   1.0000      -0.729726       -19.8568
  20   1.0000      -0.706154       -19.2154
  21   1.0000      -0.675297       -18.3758
  22   1.0000      -0.612123       -16.6567
  23   1.0000      -0.589627       -16.0446
  24   1.0000      -0.565937       -15.3999
  25   1.0000      -0.558442       -15.1960
  26   1.0000      -0.536625       -14.6023
  27   1.0000      -0.516950       -14.0669
  28   1.0000      -0.450740       -12.2653
  29   1.0000      -0.448031       -12.1915
  30   1.0000      -0.441837       -12.0230
  31   1.0000      -0.429853       -11.6969
  32   1.0000      -0.416013       -11.3203
  33   1.0000      -0.405389       -11.0312
  34   1.0000      -0.403459       -10.9787
  35   1.0000      -0.394731       -10.7412
  36   1.0000      -0.391753       -10.6601
  37   1.0000      -0.389431       -10.5970
  38   1.0000      -0.385962       -10.5026
  39   1.0000      -0.361405        -9.8343
  40   1.0000      -0.349714        -9.5162
  41   1.0000      -0.341991        -9.3060
  42   1.0000      -0.329311        -8.9610
  43   1.0000      -0.300259        -8.1705
  44   1.0000      -0.295829        -8.0499
  45   1.0000      -0.238378        -6.4866
  46   1.0000      -0.219181        -5.9642
  47   1.0000      -0.199519        -5.4292
  48   0.0000      -0.047142        -1.2828
  49   0.0000      -0.007043        -0.1916
  50   0.0000       0.010324         0.2809
  51   0.0000       0.023657         0.6437
  52   0.0000       0.027154         0.7389

MULLIKEN ATOMIC CHARGES AND SPIN POPULATIONS
--------------------------------------------
   0 C :   -1.266909    0.171350
   1 C :   -0.758163   -0.090566
   2 C :    0.775822    0.340320
   3 C :   -0.933358   -0.087534
   4 C :   -0.634307    0.174624
   5 C :    1.819219    0.141089
   6 C :    0.588339    0.183765
   7 O :   -1.080411    0.206607
   8 C :   -0.614822   -0.047179
   9 H :    0.227092    0.017249
  10 H :    0.224072    0.016500
  11 H :    0.158625   -0.005242
  12 H :   -0.133480   -0.007940
  13 H :    0.287983   -0.001715
  14 C :    1.203564   -0.015091
  15 F :   -0.385448    0.012370
  16 F :   -0.384092    0.003030
  17 F :   -0.384127    0.003198
  18 H :    0.323562   -0.003137
  19 H :   -0.033160   -0.011699
Sum of atomic charges         :   -1.0000000

LOEWDIN ATOMIC CHARGES AND SPIN POPULATIONS
-------------------------------------------
   0 C :    0.152296    0.081182
   1 C :    0.150354    0.036233
   2 C :   -0.223794    0.143150
   3 C :    0.151585    0.039915
   4 C :    0.165242    0.081502
   5 C :   -0.194869    0.134195
   6 C :   -0.656821    0.156981
   7 O :    0.361685    0.178531
   8 C :    0.512342    0.026561
   9 H :   -0.175333    0.006701
  10 H :   -0.175458    0.006673
  11 H :   -0.199837   -0.000777
  12 H :   -0.198322    0.014989
  13 H :   -0.189388   -0.000091
  14 C :   -1.585537    0.048211
  15 F :    0.478916    0.018261
  16 F :    0.512747    0.006660
  17 F :    0.513167    0.006937
  18 H :   -0.190284   -0.001134
  19 H :   -0.208693    0.015321

  Mayer bond orders larger than 0.100000
B(  0-C ,  1-C ) :   1.4990 B(  0-C ,  4-C ) :  -0.5618 B(  0-C ,  5-C ) :  -0.2144
B(  0-C ,  6-C ) :   0.3665 B(  0-C , 12-H ) :   0.1271 B(  0-C , 19-H ) :   1.4210
B(  1-C ,  2-C ) :   0.5150 B(  1-C ,  4-C ) :  -0.1466 B(  1-C , 18-H ) :   0.7801
B(  2-C ,  3-C ) :   0.4369 B(  2-C , 14-C ) :   1.0450 B(  2-C , 15-F ) :   0.1281
B(  2-C , 17-F ) :   0.1238 B(  3-C ,  4-C ) :   1.1216 B(  3-C ,  5-C ) :   0.1336
B(  3-C , 12-H ) :  -0.1159 B(  3-C , 13-H ) :   0.8322 B(  4-C ,  6-C ) :   0.2416
B(  4-C , 12-H ) :   1.7256 B(  5-C ,  6-C ) :   0.4056 B(  5-C ,  7-O ) :   0.2745
B(  5-C , 12-H ) :  -0.3417 B(  5-C , 19-H ) :  -0.1971 B(  6-C ,  7-O ) :   0.6211
B(  6-C ,  8-C ) :   0.9139 B(  6-C , 18-H ) :   0.1077 B(  7-O , 19-H ) :   0.1339
B(  8-C ,  9-H ) :   0.9773 B(  8-C , 10-H ) :   0.9780 B(  8-C , 11-H ) :   0.9613
B( 12-H , 19-H ) :   0.1208 B( 14-C , 15-F ) :   0.6908 B( 14-C , 16-F ) :   0.6982
B( 14-C , 17-F ) :   0.6931

Dispersion correction           -0.006706801
FINAL SINGLE POINT ENERGY      -721.942315774876

DIPOLE MOMENT
-------------

Method             : SCF
Type of density    : Electron Density
Multiplicity       :   2
Irrep              :   0
Energy             :  -721.9356089736503463 Eh
Relativity type    :
Basis              : AO
                                X                 Y                 Z
Electronic contribution:    -24.398062505       2.934226531      -0.167809856
Nuclear contribution   :     22.174393419      -4.340377650       0.286944378
                        -----------------------------------------
Total Dipole Moment    :     -2.223669086      -1.406151120       0.119134522
                        -----------------------------------------
Magnitude (a.u.)       :      2.633658712
Magnitude (Debye)      :      6.694228447

Rotational constants in cm-1:             0.074129             0.012365             0.011236
Rotational constants in MHz :          2222.330337           370.696975           336.858086

                             ****ORCA TERMINATED NORMALLY****
TOTAL RUN TIME: 0 days 0 hours 10 minutes 18 seconds 231 msec
