                         Program Version 6.0.0  -   RELEASE  -
|  1> !TPSSh opt aug-cc-pVTZ d3 TightSCF SlowConv RIJCOSX defgrid2
|  2>
|  3> %pal
|  4> nprocs 8
|  5> end
|  6>
|  7> %scf
|  8> MaxIter 1500
|  9> end
| 10>
| 11> %maxcore 3500
| 12>
| 13> !CPCM
| 14> %cpcm smd true
| 15> SMDsolvent "MeCN"
| 16> surfacetype gepol_ses
| 17> rsolv 2.19
| 18> end
| 19>
| 20> * xyz 1 2
| 21> C          -0.34270275561118      0.84711240516987     -0.00000461392678
| 22> C          -1.62114214149599      0.28310666085248      0.00005036258773
| 23> C          -1.76655845984461     -1.14534797316706      0.00015902441429
| 24> C          -0.64047775510568     -1.96124661886859      0.00020951229865
| 25> C           0.62711717490611     -1.39778631503778      0.00015498102973
| 26> C           0.79382657036915      0.03758278475822      0.00002872344792
| 27> C           2.09240943022637      0.64547974379403     -0.00003830185520
| 28> C           3.29430838690790     -0.01032166453559      0.00000281703843
| 29> C           4.60760132054960      0.65947907504340     -0.00004889316533
| 30> H           5.19809781171836      0.33504540056372     -0.87962451212125
| 31> H           5.19805381830583      0.33523637975460      0.87962749612829
| 32> H           4.53047503370681      1.75742824935659     -0.00016451192059
| 33> H           3.31318609028762     -1.10737767604801      0.00008430734855
| 34> H           2.10926613216247      1.74179274962735     -0.00012792598686
| 35> H           1.50121349078302     -2.05141955010833      0.00019397364887
| 36> H          -0.75915141594404     -3.04749102718735      0.00029347430122
| 37> H          -2.76100240605802     -1.59669233225998      0.00020413991672
| 38> O          -2.63949171539410      1.10870001849501     -0.00000818654028
| 39> C          -3.98618237230029      0.65565691136091      0.00006847700849
| 40> H          -4.60288239689184      1.56371892248403      0.00002378375357
| 41> H          -4.19996760244314      0.06636471722196      0.90775693220812
| 42> H          -4.20002007511970      0.06623874429631     -0.90752475328728
| 43> H          -0.25881356371464      1.93607439443420     -0.00008040632701
| 44> *
| 45>
| 46>                          ****END OF INPUT****
 Total Charge           Charge          ....    1
 Multiplicity           Mult            ....    2
 Number of Electrons    NEL             ....   79
Dispersion correction           -0.026561230
FINAL SINGLE POINT ENERGY      -463.518423646453
Dispersion correction             ... done (  0.1 sec)
Dispersion correction           -0.026671633
FINAL SINGLE POINT ENERGY      -463.520104564018
Dispersion correction             ... done (  0.1 sec)
Dispersion correction           -0.026712156
FINAL SINGLE POINT ENERGY      -463.520312329679
Dispersion correction             ... done (  0.1 sec)
Dispersion correction           -0.026717619
FINAL SINGLE POINT ENERGY      -463.520364083562
Dispersion correction             ... done (  0.1 sec)
Dispersion correction           -0.026713194
FINAL SINGLE POINT ENERGY      -463.520372304083
Dispersion correction             ... done (  0.1 sec)
                    ***********************HURRAY********************

CARTESIAN COORDINATES (ANGSTROEM)
---------------------------------
  C     -0.336668    0.873877    0.002250
  C     -1.605273    0.305725    0.001059
  C     -1.759846   -1.114625    0.000289
  C     -0.637811   -1.929870    0.003289
  C      0.626400   -1.371077    0.005333
  C      0.792782    0.059007    0.003358
  C      2.091279    0.659301    0.002876
  C      3.274311   -0.019627   -0.001958
  C      4.596369    0.634275   -0.002793
  H      5.169338    0.306020   -0.878369
  H      5.173943    0.297329    0.866420
  H      4.527502    1.721150    0.002617
  H      3.276247   -1.104199   -0.006344
  H      2.119167    1.744233    0.004774
  H      1.493093   -2.015902    0.008928
  H     -0.757773   -3.004419    0.004053
  H     -2.747336   -1.553417   -0.003622
  O     -2.640098    1.141377    0.000645
  C     -3.987281    0.612713   -0.002625
  H     -4.629104    1.488314    0.000245
  H     -4.158241    0.016097    0.893178
  H     -4.155903    0.023669   -0.903790
  H     -0.237934    1.951383    0.001423

 Multiplicity           Mult            ....    2
 Number of Electrons    NEL             ....   79
 Basis Dimension        Dim             ....  782

ORBITAL ENERGIES
----------------
                 SPIN UP ORBITALS
  NO   OCC          E(Eh)            E(eV)
   0   1.0000     -19.128268      -520.5066
   1   1.0000     -10.222671      -278.1730
   2   1.0000     -10.175132      -276.8794
   3   1.0000     -10.173295      -276.8294
   4   1.0000     -10.170809      -276.7618
   5   1.0000     -10.168811      -276.7074
   6   1.0000     -10.168334      -276.6944
   7   1.0000     -10.153146      -276.2811
   8   1.0000     -10.148047      -276.1424
   9   1.0000     -10.140199      -275.9289
  10   1.0000     -10.120990      -275.4061
  11   1.0000      -1.085679       -29.5428
  12   1.0000      -0.880728       -23.9658
  13   1.0000      -0.821462       -22.3531
  14   1.0000      -0.775278       -21.0964
  15   1.0000      -0.767170       -20.8757
  16   1.0000      -0.708107       -19.2686
  17   1.0000      -0.692071       -18.8322
  18   1.0000      -0.622778       -16.9467
  19   1.0000      -0.615711       -16.7544
  20   1.0000      -0.562326       -15.3017
  21   1.0000      -0.538948       -14.6655
  22   1.0000      -0.504281       -13.7222
  23   1.0000      -0.495776       -13.4908
  24   1.0000      -0.476494       -12.9661
  25   1.0000      -0.476089       -12.9550
  26   1.0000      -0.446314       -12.1448
  27   1.0000      -0.431316       -11.7367
  28   1.0000      -0.418554       -11.3894
  29   1.0000      -0.409455       -11.1418
  30   1.0000      -0.403751       -10.9866
  31   1.0000      -0.397801       -10.8247
  32   1.0000      -0.384358       -10.4589
  33   1.0000      -0.369146       -10.0450
  34   1.0000      -0.357657        -9.7323
  35   1.0000      -0.356975        -9.7138
  36   1.0000      -0.337645        -9.1878
  37   1.0000      -0.320274        -8.7151
  38   1.0000      -0.256476        -6.9791
  39   1.0000      -0.252979        -6.8839
  40   0.0000      -0.095108        -2.5880
  41   0.0000      -0.049538        -1.3480
  42   0.0000      -0.006398        -0.1741
  43   0.0000       0.000690         0.0188
  44   0.0000       0.002010         0.0547

                 SPIN DOWN ORBITALS
  NO   OCC          E(Eh)            E(eV)
   0   1.0000     -19.125893      -520.4420
   1   1.0000     -10.222057      -278.1563
   2   1.0000     -10.174136      -276.8523
   3   1.0000     -10.173382      -276.8318
   4   1.0000     -10.165467      -276.6164
   5   1.0000     -10.164509      -276.5903
   6   1.0000     -10.163197      -276.5547
   7   1.0000     -10.152267      -276.2572
   8   1.0000     -10.150097      -276.1982
   9   1.0000     -10.140870      -275.9471
  10   1.0000     -10.121119      -275.4097
  11   1.0000      -1.081712       -29.4349
  12   1.0000      -0.874823       -23.8051
  13   1.0000      -0.814569       -22.1655
  14   1.0000      -0.773656       -21.0523
  15   1.0000      -0.759331       -20.6624
  16   1.0000      -0.702493       -19.1158
  17   1.0000      -0.689317       -18.7573
  18   1.0000      -0.620099       -16.8738
  19   1.0000      -0.611618       -16.6430
  20   1.0000      -0.559192       -15.2164
  21   1.0000      -0.536805       -14.6072
  22   1.0000      -0.502158       -13.6644
  23   1.0000      -0.493222       -13.4212
  24   1.0000      -0.473281       -12.8786
  25   1.0000      -0.469317       -12.7708
  26   1.0000      -0.445507       -12.1229
  27   1.0000      -0.430507       -11.7147
  28   1.0000      -0.409211       -11.1352
  29   1.0000      -0.408182       -11.1072
  30   1.0000      -0.395697       -10.7675
  31   1.0000      -0.393364       -10.7040
  32   1.0000      -0.383137       -10.4257
  33   1.0000      -0.367908       -10.0113
  34   1.0000      -0.356219        -9.6932
  35   1.0000      -0.344304        -9.3690
  36   1.0000      -0.335857        -9.1391
  37   1.0000      -0.304932        -8.2976
  38   1.0000      -0.245395        -6.6775
  39   0.0000      -0.198919        -5.4128
  40   0.0000      -0.071949        -1.9578
  41   0.0000      -0.039835        -1.0840
  42   0.0000      -0.005703        -0.1552
  43   0.0000       0.002532         0.0689

MULLIKEN ATOMIC CHARGES AND SPIN POPULATIONS
--------------------------------------------
   0 C :   -0.478786   -0.074448
   1 C :    0.711800    0.054662
   2 C :    0.035607    0.352133
   3 C :   -0.681296   -0.168042
   4 C :   -0.311035    0.372276
   5 C :    1.263611    0.068878
   6 C :    0.029155    0.072780
   7 C :   -0.419496    0.251274
   8 C :   -0.271137   -0.039513
   9 H :    0.150297    0.019068
  10 H :    0.151119    0.018972
  11 H :    0.133335   -0.003068
  12 H :    0.085827   -0.008649
  13 H :    0.024223   -0.000289
  14 H :    0.274904    0.010483
  15 H :    0.489410   -0.008247
  16 H :    0.163805    0.002940
  17 O :   -0.636299    0.076646
  18 C :   -0.218458   -0.001499
  19 H :    0.032968    0.000744
  20 H :    0.215535    0.000564
  21 H :    0.213050    0.000648
  22 H :    0.041860    0.001687
Sum of atomic charges         :    1.0000000

LOEWDIN ATOMIC CHARGES AND SPIN POPULATIONS
-------------------------------------------
   0 C :    0.255485   -0.002566
   1 C :   -0.342872    0.075300
   2 C :    0.292014    0.170909
   3 C :    0.273930    0.044487
   4 C :    0.293050    0.176393
   5 C :   -0.091069    0.084413
   6 C :    0.281592    0.081943
   7 C :    0.292265    0.135732
   8 C :    0.615332    0.043301
   9 H :   -0.149136    0.010114
  10 H :   -0.149255    0.010094
  11 H :   -0.164022    0.000999
  12 H :   -0.168175    0.021675
  13 H :   -0.160501    0.008395
  14 H :   -0.170731    0.035957
  15 H :   -0.154358   -0.009640
  16 H :   -0.169140    0.036791
  17 O :    0.640151    0.068667
  18 C :    0.422562    0.007379
  19 H :   -0.168542   -0.000302
  20 H :   -0.160994    0.001960
  21 H :   -0.160788    0.001957
  22 H :   -0.156799   -0.003958

  Mayer bond orders larger than 0.100000
B(  0-C ,  1-C ) :   0.7008 B(  0-C ,  4-C ) :  -0.1143 B(  0-C ,  5-C ) :   0.4828
B(  0-C ,  6-C ) :  -0.3650 B(  0-C ,  7-C ) :   0.1317 B(  0-C , 17-O ) :   0.4557
B(  0-C , 22-H ) :   1.0901 B(  1-C ,  2-C ) :   1.0736 B(  1-C ,  4-C ) :  -0.1525
B(  1-C , 18-C ) :   0.1759 B(  2-C ,  3-C ) :   1.2603 B(  2-C ,  4-C ) :   0.1012
B(  2-C ,  5-C ) :  -0.1227 B(  2-C , 16-H ) :   0.9642 B(  2-C , 17-O ) :  -0.2231
B(  2-C , 18-C ) :  -0.1326 B(  3-C ,  4-C ) :   1.3567 B(  3-C ,  5-C ) :  -0.1630
B(  3-C , 15-H ) :   0.3843 B(  4-C ,  5-C ) :   0.7345 B(  4-C ,  7-C ) :   0.1039
B(  4-C , 14-H ) :   0.7900 B(  4-C , 15-H ) :   0.1194 B(  5-C ,  6-C ) :   0.3151
B(  5-C ,  7-C ) :  -0.1839 B(  5-C , 12-H ) :  -0.1679 B(  5-C , 17-O ) :   0.1758
B(  6-C ,  7-C ) :   0.9549 B(  6-C , 12-H ) :   0.1787 B(  6-C , 13-H ) :   1.1147
B(  7-C ,  8-C ) :   1.1282 B(  7-C , 11-H ) :   0.1242 B(  7-C , 12-H ) :   1.2008
B(  7-C , 14-H ) :  -0.1040 B(  8-C ,  9-H ) :   0.9227 B(  8-C , 10-H ) :   0.9224
B(  8-C , 11-H ) :   0.9323 B( 17-O , 18-C ) :   0.9050 B( 18-C , 19-H ) :   1.0666
B( 18-C , 20-H ) :   0.9250 B( 18-C , 21-H ) :   0.9268

Dispersion correction           -0.026711428
FINAL SINGLE POINT ENERGY      -463.520375006962

DIPOLE MOMENT
-------------

Method             : SCF
Type of density    : Electron Density
Multiplicity       :   2
Irrep              :   0
Energy             :  -463.4936635786957595 Eh
Relativity type    :
Basis              : AO
                                X                 Y                 Z
Electronic contribution:     -4.439577869      -0.623481510       0.015899878
Nuclear contribution   :      4.753836208      -0.305061243      -0.019929203
                        -----------------------------------------
Total Dipole Moment    :      0.314258339      -0.928542753      -0.004029324
                        -----------------------------------------
Magnitude (a.u.)       :      0.980288827
Magnitude (Debye)      :      2.491696180

Rotational constants in cm-1:             0.105188             0.017128             0.014812
Rotational constants in MHz :          3153.461959           513.491169           444.040189

                             ****ORCA TERMINATED NORMALLY****
TOTAL RUN TIME: 0 days 0 hours 48 minutes 58 seconds 568 msec
