                         Program Version 6.0.0  -   RELEASE  -
|  1> !PBE0 opt def2-SV(p) d3 TightSCF SlowConv RIJCOSX defgrid2
|  2>
|  3> %pal
|  4> nprocs 8
|  5> end
|  6>
|  7> %scf
|  8> MaxIter 1500
|  9> end
| 10>
| 11> %maxcore 3500
| 12>
| 13> !CPCM
| 14> %cpcm smd true
| 15> SMDsolvent "MeCN"
| 16> surfacetype gepol_ses
| 17> rsolv 2.19
| 18> end
| 19>
| 20> * xyz 1 2
| 21> C           2.42348472290459     -0.91745853608407      0.59245240880380
| 22> C           1.25995896348321     -0.39202749196625     -0.02333100512405
| 23> C           1.34845533499414      0.85031226217091     -0.70354304574749
| 24> C           2.54901795106357      1.53889253592779     -0.75588972072195
| 25> C           3.68078809059867      1.01347219167219     -0.12249703890860
| 26> C           3.61293527426724     -0.21317645517309      0.55511971135216
| 27> H           4.49963825852970     -0.61051765955941      1.05572901180402
| 28> H           4.62917087127076      1.55697433746367     -0.16496199627931
| 29> H           2.61592640542583      2.48137948500377     -1.30532606762871
| 30> H           0.47393529747941      1.23580556067586     -1.23411925330570
| 31> C          -0.00001731418985     -1.11439032518152     -0.00002747562644
| 32> C          -0.00002568960524     -2.50679262514812     -0.00005487800504
| 33> H          -0.93480054732863     -3.07584961343870     -0.00342574946663
| 34> H           0.93474533226452     -3.07585703929259      0.00329162420143
| 35> C          -1.25998231282226     -0.39200541574857      0.02329276572865
| 36> C          -2.42352655120021     -0.91741544935804     -0.59247757528391
| 37> C          -3.61296415978219     -0.21311035984979     -0.55512705740855
| 38> C          -3.68079177573927      1.01353038434026      0.12250956134291
| 39> C          -2.54900448879428      1.53892565378929      0.75589582496725
| 40> C          -1.34845157706727      0.85032505299238      0.70352498564033
| 41> H          -0.47391984231340      1.23578710201298      1.23410367351677
| 42> H          -2.61589448475022      2.48140107327864      1.30534730547376
| 43> H          -4.62916722704471      1.55704319189423      0.16499523284128
| 44> H          -4.49967994828211     -0.61043350047146     -1.05572841225155
| 45> H          -2.37320187697182     -1.85878167189054     -1.14547741375033
| 46> H           2.37313869360983     -1.85882668805983      1.14544868383589
| 47> *
| 48>
| 49>                          ****END OF INPUT****
 Total Charge           Charge          ....    1
 Multiplicity           Mult            ....    2
 Number of Electrons    NEL             ....   95
Dispersion correction           -0.029090467
FINAL SINGLE POINT ENERGY      -539.468812048447
Dispersion correction             ... done (  0.1 sec)
Dispersion correction           -0.029151590
FINAL SINGLE POINT ENERGY      -539.468762356536
Dispersion correction             ... done (  0.1 sec)
Dispersion correction           -0.029097981
FINAL SINGLE POINT ENERGY      -539.468851969915
Dispersion correction             ... done (  0.1 sec)
Dispersion correction           -0.029102119
FINAL SINGLE POINT ENERGY      -539.468869649272
Dispersion correction             ... done (  0.1 sec)
                    ***********************HURRAY********************

CARTESIAN COORDINATES (ANGSTROEM)
---------------------------------
  C      2.426106   -0.934703    0.564352
  C      1.261302   -0.386086   -0.026249
  C      1.351715    0.869631   -0.677852
  C      2.556050    1.553356   -0.721146
  C      3.689503    1.007671   -0.109338
  C      3.619826   -0.235196    0.534627
  H      4.508287   -0.652454    1.015518
  H      4.639385    1.548846   -0.143000
  H      2.621489    2.510326   -1.245071
  H      0.477774    1.275646   -1.192935
  C     -0.000016   -1.103980    0.000098
  C     -0.000032   -2.497305    0.000076
  H     -0.935044   -3.065004   -0.018321
  H      0.934961   -3.065046    0.018429
  C     -1.261326   -0.386073    0.026354
  C     -2.426058   -0.934616   -0.564449
  C     -3.619763   -0.235074   -0.534855
  C     -3.689488    1.007774    0.109136
  C     -2.556109    1.553381    0.721161
  C     -1.351800    0.869603    0.678013
  H     -0.477980    1.275520    1.193409
  H     -2.621596    2.510306    1.245161
  H     -4.639354    1.548982    0.142676
  H     -4.508165   -0.652271   -1.015912
  H     -2.375708   -1.892952   -1.086365
  H      2.375811   -1.893075    1.086208

 Multiplicity           Mult            ....    2
 Number of Electrons    NEL             ....   95
 Basis Dimension        Dim             ....  220

ORBITAL ENERGIES
----------------
                 SPIN UP ORBITALS
  NO   OCC          E(Eh)            E(eV)
   0   1.0000     -10.318306      -280.7754
   1   1.0000     -10.303977      -280.3855
   2   1.0000     -10.290597      -280.0214
   3   1.0000     -10.290565      -280.0205
   4   1.0000     -10.271779      -279.5093
   5   1.0000     -10.271766      -279.5090
   6   1.0000     -10.270716      -279.4804
   7   1.0000     -10.270714      -279.4803
   8   1.0000     -10.270192      -279.4661
   9   1.0000     -10.270189      -279.4660
  10   1.0000     -10.259085      -279.1639
  11   1.0000     -10.259084      -279.1639
  12   1.0000     -10.258566      -279.1498
  13   1.0000     -10.258555      -279.1495
  14   1.0000      -0.932275       -25.3685
  15   1.0000      -0.905203       -24.6318
  16   1.0000      -0.866767       -23.5859
  17   1.0000      -0.797843       -21.7104
  18   1.0000      -0.796808       -21.6823
  19   1.0000      -0.787745       -21.4356
  20   1.0000      -0.773272       -21.0418
  21   1.0000      -0.689987       -18.7755
  22   1.0000      -0.656193       -17.8559
  23   1.0000      -0.644615       -17.5409
  24   1.0000      -0.638414       -17.3721
  25   1.0000      -0.597563       -16.2605
  26   1.0000      -0.570439       -15.5224
  27   1.0000      -0.547205       -14.8902
  28   1.0000      -0.513133       -13.9631
  29   1.0000      -0.511848       -13.9281
  30   1.0000      -0.492526       -13.4023
  31   1.0000      -0.482706       -13.1351
  32   1.0000      -0.480436       -13.0733
  33   1.0000      -0.463043       -12.6000
  34   1.0000      -0.461752       -12.5649
  35   1.0000      -0.460474       -12.5301
  36   1.0000      -0.432723       -11.7750
  37   1.0000      -0.425475       -11.5778
  38   1.0000      -0.416465       -11.3326
  39   1.0000      -0.396538       -10.7903
  40   1.0000      -0.386643       -10.5211
  41   1.0000      -0.380403       -10.3513
  42   1.0000      -0.376325       -10.2403
  43   1.0000      -0.364508        -9.9188
  44   1.0000      -0.302266        -8.2251
  45   1.0000      -0.299497        -8.1497
  46   1.0000      -0.293947        -7.9987
  47   1.0000      -0.281789        -7.6679
  48   0.0000      -0.099343        -2.7033
  49   0.0000      -0.046227        -1.2579
  50   0.0000      -0.034773        -0.9462
  51   0.0000      -0.021687        -0.5901
  52   0.0000       0.022134         0.6023

                 SPIN DOWN ORBITALS
  NO   OCC          E(Eh)            E(eV)
   0   1.0000     -10.318722      -280.7867
   1   1.0000     -10.294570      -280.1295
   2   1.0000     -10.289523      -279.9921
   3   1.0000     -10.289490      -279.9913
   4   1.0000     -10.270700      -279.4799
   5   1.0000     -10.270686      -279.4796
   6   1.0000     -10.269253      -279.4406
   7   1.0000     -10.269249      -279.4405
   8   1.0000     -10.268664      -279.4246
   9   1.0000     -10.268663      -279.4245
  10   1.0000     -10.259608      -279.1781
  11   1.0000     -10.259607      -279.1781
  12   1.0000     -10.259188      -279.1667
  13   1.0000     -10.259178      -279.1664
  14   1.0000      -0.928024       -25.2528
  15   1.0000      -0.902268       -24.5519
  16   1.0000      -0.860428       -23.4134
  17   1.0000      -0.795202       -21.6385
  18   1.0000      -0.793786       -21.6000
  19   1.0000      -0.785441       -21.3729
  20   1.0000      -0.760244       -20.6873
  21   1.0000      -0.683866       -18.6089
  22   1.0000      -0.654233       -17.8026
  23   1.0000      -0.641125       -17.4459
  24   1.0000      -0.636669       -17.3247
  25   1.0000      -0.594643       -16.1811
  26   1.0000      -0.569240       -15.4898
  27   1.0000      -0.544204       -14.8085
  28   1.0000      -0.511066       -13.9068
  29   1.0000      -0.509766       -13.8714
  30   1.0000      -0.490216       -13.3394
  31   1.0000      -0.479852       -13.0574
  32   1.0000      -0.478381       -13.0174
  33   1.0000      -0.460671       -12.5355
  34   1.0000      -0.460497       -12.5308
  35   1.0000      -0.459593       -12.5062
  36   1.0000      -0.429513       -11.6876
  37   1.0000      -0.416554       -11.3350
  38   1.0000      -0.408439       -11.1142
  39   1.0000      -0.395868       -10.7721
  40   1.0000      -0.386131       -10.5072
  41   1.0000      -0.376806       -10.2534
  42   1.0000      -0.375050       -10.2056
  43   1.0000      -0.343002        -9.3335
  44   1.0000      -0.298025        -8.1097
  45   1.0000      -0.291683        -7.9371
  46   1.0000      -0.283490        -7.7142
  47   0.0000      -0.195856        -5.3295
  48   0.0000      -0.064817        -1.7638
  49   0.0000      -0.037819        -1.0291
  50   0.0000      -0.030286        -0.8241
  51   0.0000      -0.016104        -0.4382

MULLIKEN ATOMIC CHARGES AND SPIN POPULATIONS
--------------------------------------------
   0 C :   -0.110757    0.061350
   1 C :    0.030095    0.067989
   2 C :   -0.111616    0.070741
   3 C :   -0.101352   -0.052000
   4 C :   -0.057514    0.147099
   5 C :   -0.102783   -0.045291
   6 H :    0.149006    0.001518
   7 H :    0.156469   -0.007048
   8 H :    0.149286    0.001975
   9 H :    0.164692   -0.003365
  10 C :    0.042355   -0.031638
  11 C :   -0.118980    0.612607
  12 H :    0.218744   -0.030326
  13 H :    0.218747   -0.030326
  14 C :    0.030273    0.067976
  15 C :   -0.110777    0.061348
  16 C :   -0.102781   -0.045288
  17 C :   -0.057531    0.147088
  18 C :   -0.101385   -0.052002
  19 C :   -0.111644    0.070745
  20 H :    0.164594   -0.003365
  21 H :    0.149288    0.001976
  22 H :    0.156467   -0.007047
  23 H :    0.149006    0.001519
  24 H :    0.154049   -0.003118
  25 H :    0.154052   -0.003118
Sum of atomic charges         :    1.0000000

LOEWDIN ATOMIC CHARGES AND SPIN POPULATIONS
-------------------------------------------
   0 C :   -0.077968    0.053908
   1 C :   -0.024826    0.060120
   2 C :   -0.077248    0.061972
   3 C :   -0.117038   -0.027628
   4 C :   -0.060063    0.115357
   5 C :   -0.114226   -0.023034
   6 H :    0.157557    0.000702
   7 H :    0.159151   -0.003397
   8 H :    0.157803    0.001019
   9 H :    0.159653   -0.001423
  10 C :    0.044375    0.007970
  11 C :   -0.036370    0.549043
  12 H :    0.172844   -0.014559
  13 H :    0.172845   -0.014559
  14 C :   -0.024796    0.060110
  15 C :   -0.077973    0.053905
  16 C :   -0.114225   -0.023032
  17 C :   -0.060074    0.115347
  18 C :   -0.117037   -0.027630
  19 C :   -0.077250    0.061974
  20 H :    0.159611   -0.001423
  21 H :    0.157804    0.001020
  22 H :    0.159150   -0.003397
  23 H :    0.157557    0.000702
  24 H :    0.160370   -0.001534
  25 H :    0.160372   -0.001534

  Mayer bond orders larger than 0.100000
B(  0-C ,  1-C ) :   1.2683 B(  0-C ,  5-C ) :   1.4459 B(  0-C , 25-H ) :   0.9479
B(  1-C ,  2-C ) :   1.2742 B(  1-C , 10-C ) :   1.1365 B(  2-C ,  3-C ) :   1.4277
B(  2-C ,  9-H ) :   0.9435 B(  3-C ,  4-C ) :   1.3442 B(  3-C ,  8-H ) :   0.9590
B(  4-C ,  5-C ) :   1.3275 B(  4-C ,  7-H ) :   0.9568 B(  5-C ,  6-H ) :   0.9581
B( 10-C , 11-C ) :   1.5583 B( 10-C , 14-C ) :   1.1365 B( 11-C , 12-H ) :   0.8898
B( 11-C , 13-H ) :   0.8898 B( 14-C , 15-C ) :   1.2683 B( 14-C , 19-C ) :   1.2741
B( 15-C , 16-C ) :   1.4459 B( 15-C , 24-H ) :   0.9479 B( 16-C , 17-C ) :   1.3275
B( 16-C , 23-H ) :   0.9581 B( 17-C , 18-C ) :   1.3442 B( 17-C , 22-H ) :   0.9568
B( 18-C , 19-C ) :   1.4278 B( 18-C , 21-H ) :   0.9590 B( 19-C , 20-H ) :   0.9435

Dispersion correction           -0.029103097
FINAL SINGLE POINT ENERGY      -539.468867592104

DIPOLE MOMENT
-------------

Method             : SCF
Type of density    : Electron Density
Multiplicity       :   2
Irrep              :   0
Energy             :  -539.4397644947067647 Eh
Relativity type    :
Basis              : AO
                                X                 Y                 Z
Electronic contribution:      0.000058381      -0.360704854       0.000090762
Nuclear contribution   :     -0.000056027      -0.593713630      -0.000124914
                        -----------------------------------------
Total Dipole Moment    :      0.000002354      -0.954418484      -0.000034152
                        -----------------------------------------
Magnitude (a.u.)       :      0.954418484
Magnitude (Debye)      :      2.425938995

Rotational constants in cm-1:             0.053928             0.014251             0.012059
Rotational constants in MHz :          1616.732143           427.244716           361.531608

                             ****ORCA TERMINATED NORMALLY****
TOTAL RUN TIME: 0 days 0 hours 8 minutes 54 seconds 916 msec
