                         Program Version 6.0.0  -   RELEASE  -
|  1> !r2SCANh aug-cc-pVTZ d3 TightSCF SlowConv RIJCOSX defgrid2
|  2>
|  3> %pal
|  4> nprocs 4
|  5> end
|  6>
|  7> %scf
|  8> MaxIter 1500
|  9> end
| 10>
| 11> %maxcore 3000
| 12>
| 13> !CPCM
| 14> %cpcm smd true
| 15> SMDsolvent "MeCN"
| 16> surfacetype gepol_ses
| 17> rsolv 2.19
| 18> end
| 19>
| 20> * xyz 0 1
| 21> C          -2.35855566249028     -1.18298734946581      0.44746508492782
| 22> C          -3.63998601494038     -0.64494677752617      0.40531310745406
| 23> C          -3.85303233632332      0.64184728390947     -0.08922899701963
| 24> C          -2.76160264019232      1.37149847988341     -0.55944574759612
| 25> C          -1.47660109339583      0.83661893600173     -0.53774129143291
| 26> C          -1.25440681594945     -0.45059005524099     -0.02098393310126
| 27> N          -0.00000421351286     -1.04691099052655     -0.00000634656969
| 28> C           1.25440223898594     -0.45059921009457      0.02097107702327
| 29> C           1.47660100518815      0.83661344736755      0.53772022597142
| 30> C           2.76160709047823      1.37148092391060      0.55943972704073
| 31> C           3.85303807972459      0.64181530245744      0.08924769050056
| 32> C           3.63998848210222     -0.64498151368667     -0.40528711196994
| 33> C           2.35855298180034     -1.18301040091692     -0.44745622777963
| 34> H           2.19908895406864     -2.18668027905193     -0.85522438065874
| 35> H           4.48199840421952     -1.23797876876707     -0.77528111411611
| 36> H           4.85916686280388      1.06886680223861      0.11285453118115
| 37> H           2.91087680856629      2.37556477081901      0.96852154939093
| 38> H           0.64246040679070      1.40934002015136      0.94801182020360
| 39> H          -0.00000725820461     -2.05910419744794     -0.00000990999799
| 40> H          -0.64246082169541      1.40933334107559     -0.94805093043179
| 41> H          -2.91086965745103      2.37558015369041     -0.96853357662371
| 42> H          -4.85915726714274      1.06890811498503     -0.11281791601209
| 43> H          -4.48199557743319     -1.23793238163885      0.77532568830103
| 44> H          -2.19909265599709     -2.18665445212673      0.85523908131503
| 45> *
| 46>
| 47>                          ****END OF INPUT****

CARTESIAN COORDINATES (ANGSTROEM)
---------------------------------
  C     -2.358556   -1.182987    0.447465
  C     -3.639986   -0.644947    0.405313
  C     -3.853032    0.641847   -0.089229
  C     -2.761603    1.371498   -0.559446
  C     -1.476601    0.836619   -0.537741
  C     -1.254407   -0.450590   -0.020984
  N     -0.000004   -1.046911   -0.000006
  C      1.254402   -0.450599    0.020971
  C      1.476601    0.836613    0.537720
  C      2.761607    1.371481    0.559440
  C      3.853038    0.641815    0.089248
  C      3.639988   -0.644982   -0.405287
  C      2.358553   -1.183010   -0.447456
  H      2.199089   -2.186680   -0.855224
  H      4.481998   -1.237979   -0.775281
  H      4.859167    1.068867    0.112855
  H      2.910877    2.375565    0.968522
  H      0.642460    1.409340    0.948012
  H     -0.000007   -2.059104   -0.000010
  H     -0.642461    1.409333   -0.948051
  H     -2.910870    2.375580   -0.968534
  H     -4.859157    1.068908   -0.112818
  H     -4.481996   -1.237932    0.775326
  H     -2.199093   -2.186654    0.855239

 Total Charge           Charge          ....    0
 Multiplicity           Mult            ....    1
 Number of Electrons    NEL             ....   90
 Basis Dimension        Dim             ....  851

ORBITAL ENERGIES
----------------

  NO   OCC          E(Eh)            E(eV)
   0   2.0000     -14.331084      -389.9686
   1   2.0000     -10.207334      -277.7557
   2   2.0000     -10.207330      -277.7556
   3   2.0000     -10.161246      -276.5016
   4   2.0000     -10.161244      -276.5015
   5   2.0000     -10.161225      -276.5010
   6   2.0000     -10.161224      -276.5010
   7   2.0000     -10.157502      -276.3997
   8   2.0000     -10.157496      -276.3995
   9   2.0000     -10.157140      -276.3898
  10   2.0000     -10.157135      -276.3897
  11   2.0000     -10.152765      -276.2708
  12   2.0000     -10.152762      -276.2707
  13   2.0000      -0.958658       -26.0864
  14   2.0000      -0.859584       -23.3905
  15   2.0000      -0.839129       -22.8339
  16   2.0000      -0.758875       -20.6500
  17   2.0000      -0.748573       -20.3697
  18   2.0000      -0.742915       -20.2157
  19   2.0000      -0.713007       -19.4019
  20   2.0000      -0.619924       -16.8690
  21   2.0000      -0.617954       -16.8154
  22   2.0000      -0.593606       -16.1528
  23   2.0000      -0.575154       -15.6507
  24   2.0000      -0.525791       -14.3075
  25   2.0000      -0.516724       -14.0608
  26   2.0000      -0.486488       -13.2380
  27   2.0000      -0.466509       -12.6944
  28   2.0000      -0.443540       -12.0693
  29   2.0000      -0.435574       -11.8526
  30   2.0000      -0.420793       -11.4504
  31   2.0000      -0.416316       -11.3285
  32   2.0000      -0.407433       -11.0868
  33   2.0000      -0.406390       -11.0584
  34   2.0000      -0.389517       -10.5993
  35   2.0000      -0.367216        -9.9924
  36   2.0000      -0.353362        -9.6155
  37   2.0000      -0.341305        -9.2874
  38   2.0000      -0.331692        -9.0258
  39   2.0000      -0.327552        -8.9131
  40   2.0000      -0.314800        -8.5661
  41   2.0000      -0.255615        -6.9556
  42   2.0000      -0.254790        -6.9332
  43   2.0000      -0.252780        -6.8785
  44   2.0000      -0.191430        -5.2091
  45   0.0000      -0.032309        -0.8792
  46   0.0000      -0.027585        -0.7506
  47   0.0000      -0.023778        -0.6470
  48   0.0000       0.005447         0.1482
  49   0.0000       0.008006         0.2179

MULLIKEN ATOMIC CHARGES
-----------------------
   0 C :   -0.985236
   1 C :   -0.438826
   2 C :   -0.370382
   3 C :   -0.935082
   4 C :   -0.430618
   5 C :    1.163363
   6 N :   -0.589740
   7 C :    1.159177
   8 C :   -0.430335
   9 C :   -0.937499
  10 C :   -0.373489
  11 C :   -0.440114
  12 C :   -0.979144
  13 H :    0.434917
  14 H :    0.387950
  15 H :    0.527258
  16 H :    0.309197
  17 H :    0.661319
  18 H :   -0.049207
  19 H :    0.660790
  20 H :    0.307704
  21 H :    0.527902
  22 H :    0.383585
  23 H :    0.436509
Sum of atomic charges:    0.0000000

LOEWDIN ATOMIC CHARGES
----------------------
   0 C :    0.213920
   1 C :    0.172803
   2 C :    0.171551
   3 C :    0.177981
   4 C :    0.203684
   5 C :   -0.223705
   6 N :    0.562769
   7 C :   -0.223721
   8 C :    0.203687
   9 C :    0.177975
  10 C :    0.171555
  11 C :    0.172804
  12 C :    0.213911
  13 H :   -0.163356
  14 H :   -0.171348
  15 H :   -0.179897
  16 H :   -0.170552
  17 H :   -0.182096
  18 H :   -0.260691
  19 H :   -0.182112
  20 H :   -0.170552
  21 H :   -0.179902
  22 H :   -0.171351
  23 H :   -0.163357

  Mayer bond orders larger than 0.100000
B(  0-C ,  1-C ) :   1.1664 B(  0-C ,  2-C ) :   0.1323 B(  0-C ,  4-C ) :   0.1081
B(  0-C ,  5-C ) :   0.2334 B(  0-C ,  7-C ) :   0.1099 B(  0-C , 23-H ) :   0.5276
B(  1-C ,  2-C ) :   1.0165 B(  1-C ,  4-C ) :  -0.1237 B(  1-C ,  5-C ) :  -0.1396
B(  1-C , 22-H ) :   0.7530 B(  2-C ,  3-C ) :   1.2077 B(  2-C ,  4-C ) :   0.1619
B(  2-C , 21-H ) :   0.5400 B(  3-C ,  4-C ) :   1.1848 B(  3-C ,  5-C ) :  -0.2969
B(  3-C , 20-H ) :   0.8749 B(  4-C ,  5-C ) :   0.5378 B(  4-C ,  6-N ) :  -0.2478
B(  4-C ,  7-C ) :   0.2029 B(  4-C , 17-H ) :  -0.1393 B(  4-C , 19-H ) :   0.3155
B(  5-C ,  6-N ) :   0.5221 B(  5-C ,  8-C ) :   0.2113 B(  5-C , 12-C ) :   0.1048
B(  5-C , 17-H ) :  -0.1582 B(  5-C , 18-H ) :  -0.1073 B(  6-N ,  7-C ) :   0.5228
B(  6-N ,  8-C ) :  -0.2462 B(  6-N , 18-H ) :   1.3364 B(  7-C ,  8-C ) :   0.5421
B(  7-C ,  9-C ) :  -0.2960 B(  7-C , 11-C ) :  -0.1349 B(  7-C , 12-C ) :   0.2349
B(  7-C , 18-H ) :  -0.1081 B(  7-C , 19-H ) :  -0.1623 B(  8-C ,  9-C ) :   1.1840
B(  8-C , 10-C ) :   0.1594 B(  8-C , 11-C ) :  -0.1248 B(  8-C , 12-C ) :   0.1062
B(  8-C , 17-H ) :   0.3153 B(  8-C , 19-H ) :  -0.1355 B(  9-C , 10-C ) :   1.2148
B(  9-C , 16-H ) :   0.8728 B( 10-C , 11-C ) :   1.0152 B( 10-C , 12-C ) :   0.1277
B( 10-C , 15-H ) :   0.5408 B( 11-C , 12-C ) :   1.1594 B( 11-C , 14-H ) :   0.7451
B( 12-C , 13-H ) :   0.5329

Dispersion correction           -0.009122123
FINAL SINGLE POINT ENERGY      -518.537915326111

DIPOLE MOMENT
-------------

Method             : SCF
Type of density    : Electron Density
Multiplicity       :   1
Irrep              :   0
Energy             :  -518.5287932031230866 Eh
Relativity type    :
Basis              : AO
                                X                 Y                 Z
Electronic contribution:     -0.000002582      -1.332742535       0.000534694
Nuclear contribution   :      0.000006870       0.752166841       0.000025965
                        -----------------------------------------
Total Dipole Moment    :      0.000004288      -0.580575693       0.000560659
                        -----------------------------------------
Magnitude (a.u.)       :      0.580575964
Magnitude (Debye)      :      1.475706824

Rotational constants in cm-1:             0.084180             0.013733             0.012322
Rotational constants in MHz :          2523.650354           411.709672           369.402071

                             ****ORCA TERMINATED NORMALLY****
TOTAL RUN TIME: 0 days 0 hours 10 minutes 54 seconds 959 msec
