                         Program Version 6.0.0  -   RELEASE  -
|  1> !B3LYP aug-cc-pVTZ d3 TightSCF SlowConv RIJCOSX defgrid2
|  2>
|  3> %pal
|  4> nprocs 4
|  5> end
|  6>
|  7> %scf
|  8> MaxIter 1500
|  9> end
| 10>
| 11> %maxcore 3000
| 12>
| 13> !CPCM
| 14> %cpcm smd true
| 15> SMDsolvent "MeCN"
| 16> surfacetype gepol_ses
| 17> rsolv 2.19
| 18> end
| 19>
| 20> * xyz 1 2
| 21> C          -1.88926886591052     -0.71829471042902     -0.00000151658975
| 22> C          -0.69976165931068     -1.41947642476781     -0.00004682086503
| 23> C           0.52546620787527     -0.73616642455340     -0.00005070921479
| 24> C           1.80539513424131     -1.47669107886068     -0.00023735663381
| 25> H           2.41895885184776     -1.20629923183368      0.88130420897190
| 26> H           1.65030845286960     -2.56505007458612      0.00054431743935
| 27> H           2.41781413244718     -1.20753960674201     -0.88298442839847
| 28> C           0.52547898558837      0.73614990429939      0.00000366497278
| 29> C           1.80542537047235      1.47665380279544      0.00015411128337
| 30> H           2.41897294335330      1.20625813469298     -0.88139556544038
| 31> H           1.65034488477417      2.56501332425354     -0.00063843565960
| 32> H           2.41785215045554      1.20751683668618      0.88290259762033
| 33> C          -0.69973036540407      1.41946691144153      0.00005351354497
| 34> C          -1.88925441678624      0.71829392037224      0.00005440335703
| 35> H          -2.84458396121263      1.25172450263367      0.00010059257370
| 36> H          -0.70436141297793      2.51237392702987      0.00009399193885
| 37> H          -0.70439462134719     -2.51238326028565     -0.00008450613426
| 38> H          -2.84460951097560     -1.25170515214647     -0.00000996276619
| 39> *
| 40>
| 41>                          ****END OF INPUT****

CARTESIAN COORDINATES (ANGSTROEM)
---------------------------------
  C     -1.889269   -0.718295   -0.000002
  C     -0.699762   -1.419476   -0.000047
  C      0.525466   -0.736166   -0.000051
  C      1.805395   -1.476691   -0.000237
  H      2.418959   -1.206299    0.881304
  H      1.650308   -2.565050    0.000544
  H      2.417814   -1.207540   -0.882984
  C      0.525479    0.736150    0.000004
  C      1.805425    1.476654    0.000154
  H      2.418973    1.206258   -0.881396
  H      1.650345    2.565013   -0.000638
  H      2.417852    1.207517    0.882903
  C     -0.699730    1.419467    0.000054
  C     -1.889254    0.718294    0.000054
  H     -2.844584    1.251725    0.000101
  H     -0.704361    2.512374    0.000094
  H     -0.704395   -2.512383   -0.000085
  H     -2.844610   -1.251705   -0.000010

 Total Charge           Charge          ....    1
 Multiplicity           Mult            ....    2
 Number of Electrons    NEL             ....   57
 Basis Dimension        Dim             ....  598

ORBITAL ENERGIES
----------------
                 SPIN UP ORBITALS
  NO   OCC          E(Eh)            E(eV)
   0   1.0000     -10.260421      -279.2002
   1   1.0000     -10.260056      -279.1903
   2   1.0000     -10.237607      -278.5794
   3   1.0000     -10.237140      -278.5667
   4   1.0000     -10.209917      -277.8260
   5   1.0000     -10.209874      -277.8248
   6   1.0000     -10.189474      -277.2697
   7   1.0000     -10.189383      -277.2672
   8   1.0000      -0.909853       -24.7584
   9   1.0000      -0.822966       -22.3940
  10   1.0000      -0.808706       -22.0060
  11   1.0000      -0.732779       -19.9399
  12   1.0000      -0.704146       -19.1608
  13   1.0000      -0.632216       -17.2035
  14   1.0000      -0.613399       -16.6914
  15   1.0000      -0.532327       -14.4853
  16   1.0000      -0.514302       -13.9949
  17   1.0000      -0.479262       -13.0414
  18   1.0000      -0.467543       -12.7225
  19   1.0000      -0.452669       -12.3178
  20   1.0000      -0.439275       -11.9533
  21   1.0000      -0.419721       -11.4212
  22   1.0000      -0.409473       -11.1423
  23   1.0000      -0.409015       -11.1299
  24   1.0000      -0.393222       -10.7001
  25   1.0000      -0.375308       -10.2127
  26   1.0000      -0.371455       -10.1078
  27   1.0000      -0.295327        -8.0363
  28   1.0000      -0.293139        -7.9767
  29   0.0000      -0.075456        -2.0533
  30   0.0000      -0.045879        -1.2484
  31   0.0000      -0.007654        -0.2083
  32   0.0000       0.003711         0.1010
  33   0.0000       0.008324         0.2265

                 SPIN DOWN ORBITALS
  NO   OCC          E(Eh)            E(eV)
   0   1.0000     -10.255695      -279.0717
   1   1.0000     -10.255363      -279.0626
   2   1.0000     -10.234100      -278.4840
   3   1.0000     -10.233662      -278.4721
   4   1.0000     -10.211285      -277.8632
   5   1.0000     -10.211241      -277.8620
   6   1.0000     -10.189546      -277.2716
   7   1.0000     -10.189455      -277.2692
   8   1.0000      -0.899886       -24.4872
   9   1.0000      -0.811678       -22.0869
  10   1.0000      -0.805221       -21.9112
  11   1.0000      -0.730372       -19.8744
  12   1.0000      -0.697131       -18.9699
  13   1.0000      -0.626904       -17.0589
  14   1.0000      -0.606950       -16.5160
  15   1.0000      -0.529604       -14.4113
  16   1.0000      -0.511080       -13.9072
  17   1.0000      -0.475911       -12.9502
  18   1.0000      -0.451729       -12.2922
  19   1.0000      -0.450848       -12.2682
  20   1.0000      -0.435159       -11.8413
  21   1.0000      -0.412269       -11.2184
  22   1.0000      -0.408204       -11.1078
  23   1.0000      -0.407676       -11.0934
  24   1.0000      -0.373128       -10.1533
  25   1.0000      -0.371916       -10.1203
  26   1.0000      -0.368457       -10.0262
  27   1.0000      -0.289806        -7.8860
  28   0.0000      -0.209931        -5.7125
  29   0.0000      -0.040472        -1.1013
  30   0.0000      -0.033124        -0.9014
  31   0.0000      -0.007321        -0.1992
  32   0.0000       0.004067         0.1107

MULLIKEN ATOMIC CHARGES AND SPIN POPULATIONS
--------------------------------------------
   0 C :   -0.172894    0.246317
   1 C :   -0.886170   -0.132261
   2 C :    0.968430    0.353738
   3 C :   -0.667981   -0.024712
   4 H :    0.261190    0.028500
   5 H :    0.099314   -0.005641
   6 H :    0.261987    0.028562
   7 C :    0.968160    0.353820
   8 C :   -0.665971   -0.024668
   9 H :    0.262222    0.028485
  10 H :    0.098444   -0.005644
  11 H :    0.262620    0.028557
  12 C :   -0.887100   -0.132163
  13 C :   -0.175128    0.245868
  14 H :    0.622275    0.001896
  15 H :    0.014526    0.003671
  16 H :    0.007841    0.003696
  17 H :    0.628236    0.001978
Sum of atomic charges         :    1.0000000

LOEWDIN ATOMIC CHARGES AND SPIN POPULATIONS
-------------------------------------------
   0 C :    0.293928    0.153811
   1 C :    0.276595    0.041516
   2 C :   -0.015400    0.194383
   3 C :    0.616979    0.057924
   4 H :   -0.127621    0.014837
   5 H :   -0.143249    0.001595
   6 H :   -0.127468    0.014864
   7 C :   -0.015292    0.194386
   8 C :    0.617096    0.057939
   9 H :   -0.127508    0.014846
  10 H :   -0.143294    0.001598
  11 H :   -0.127485    0.014868
  12 C :    0.276608    0.041536
  13 C :    0.293929    0.153692
  14 H :   -0.130209    0.028580
  15 H :   -0.143709   -0.007490
  16 H :   -0.143705   -0.007503
  17 H :   -0.130195    0.028619

  Mayer bond orders larger than 0.100000
B(  0-C ,  1-C ) :   1.1233 B(  0-C ,  2-C ) :   0.1115 B(  0-C , 13-C ) :   0.8742
B(  0-C , 17-H ) :   0.4260 B(  1-C ,  2-C ) :   0.5089 B(  1-C , 12-C ) :   0.1375
B(  1-C , 16-H ) :   1.4069 B(  1-C , 17-H ) :  -0.1522 B(  2-C ,  3-C ) :   0.3602
B(  2-C ,  7-C ) :   1.0651 B(  2-C ,  8-C ) :   0.1130 B(  3-C ,  4-H ) :   0.9451
B(  3-C ,  5-H ) :   1.0723 B(  3-C ,  6-H ) :   0.9431 B(  3-C ,  7-C ) :   0.1142
B(  7-C ,  8-C ) :   0.3636 B(  7-C , 12-C ) :   0.5085 B(  7-C , 13-C ) :   0.1058
B(  8-C ,  9-H ) :   0.9425 B(  8-C , 10-H ) :   1.0738 B(  8-C , 11-H ) :   0.9417
B( 12-C , 13-C ) :   1.1291 B( 12-C , 14-H ) :  -0.1501 B( 12-C , 15-H ) :   1.3947
B( 13-C , 14-H ) :   0.4364

Dispersion correction           -0.030448287
FINAL SINGLE POINT ENERGY      -310.599219555360

DIPOLE MOMENT
-------------

Method             : SCF
Type of density    : Electron Density
Multiplicity       :   2
Irrep              :   0
Energy             :  -310.5687712683337622 Eh
Relativity type    :
Basis              : AO
                                X                 Y                 Z
Electronic contribution:     -5.606424557       0.000009416      -0.000326039
Nuclear contribution   :      5.537517534      -0.000008895      -0.000066911
                        -----------------------------------------
Total Dipole Moment    :     -0.068907024       0.000000522      -0.000392951
                        -----------------------------------------
Magnitude (a.u.)       :      0.068908144
Magnitude (Debye)      :      0.175150582

Rotational constants in cm-1:             0.102569             0.072675             0.043220
Rotational constants in MHz :          3074.941965          2178.738916          1295.716867

                             ****ORCA TERMINATED NORMALLY****
TOTAL RUN TIME: 0 days 0 hours 5 minutes 24 seconds 295 msec
