                         Program Version 6.0.0  -   RELEASE  -
|  1> !B3LYP aug-cc-pVTZ d3 TightSCF SlowConv RIJCOSX defgrid2
|  2>
|  3> %pal
|  4> nprocs 4
|  5> end
|  6>
|  7> %scf
|  8> MaxIter 1500
|  9> end
| 10>
| 11> %maxcore 3000
| 12>
| 13> !CPCM
| 14> %cpcm smd true
| 15> SMDsolvent "MeCN"
| 16> surfacetype gepol_ses
| 17> rsolv 2.19
| 18> end
| 19>
| 20> * xyz 0 1
| 21> C          -0.22997754219743     -1.20609091856311     -0.00046087004095
| 22> C           1.16128384069195     -1.20031253591911      0.00041394587123
| 23> C           1.87254503831811     -0.00003037040882      0.00072012391754
| 24> C           1.16131377140118      1.20026930808148      0.00041360790641
| 25> C          -0.22994707632405      1.20608173416170     -0.00046177829750
| 26> C          -0.95218511536342      0.00000427823419     -0.00003761551285
| 27> N          -2.33340895991450      0.00002157595282      0.04653779431621
| 28> H          -2.79855452143895      0.84821355690402     -0.25483389378867
| 29> H          -2.79857532928795     -0.84816111010491     -0.25482834496791
| 30> H          -0.77344381556999      2.15676174884881      0.00298430668171
| 31> H           1.69817818740019      2.15419904894576     -0.00079679497611
| 32> H           2.96571339060225     -0.00004426352233      0.00028554339021
| 33> H           1.69812535441562     -2.15425546581862     -0.00079688995407
| 34> H          -0.77349762273302     -2.15675758679187      0.00298456545474
| 35> *
| 36>
| 37>                          ****END OF INPUT****

CARTESIAN COORDINATES (ANGSTROEM)
---------------------------------
  C     -0.229978   -1.206091   -0.000461
  C      1.161284   -1.200313    0.000414
  C      1.872545   -0.000030    0.000720
  C      1.161314    1.200269    0.000414
  C     -0.229947    1.206082   -0.000462
  C     -0.952185    0.000004   -0.000038
  N     -2.333409    0.000022    0.046538
  H     -2.798555    0.848214   -0.254834
  H     -2.798575   -0.848161   -0.254828
  H     -0.773444    2.156762    0.002984
  H      1.698178    2.154199   -0.000797
  H      2.965713   -0.000044    0.000286
  H      1.698125   -2.154255   -0.000797
  H     -0.773498   -2.156758    0.002985

 Total Charge           Charge          ....    0
 Multiplicity           Mult            ....    1
 Number of Electrons    NEL             ....   50
 Basis Dimension        Dim             ....  483

ORBITAL ENERGIES
----------------

  NO   OCC          E(Eh)            E(eV)
   0   2.0000     -14.315436      -389.5428
   1   2.0000     -10.214498      -277.9506
   2   2.0000     -10.172794      -276.8158
   3   2.0000     -10.172771      -276.8152
   4   2.0000     -10.166519      -276.6451
   5   2.0000     -10.166507      -276.6447
   6   2.0000     -10.162485      -276.5353
   7   2.0000      -0.915574       -24.9140
   8   2.0000      -0.833841       -22.6900
   9   2.0000      -0.740539       -20.1511
  10   2.0000      -0.721015       -19.6198
  11   2.0000      -0.606589       -16.5061
  12   2.0000      -0.593464       -16.1490
  13   2.0000      -0.519403       -14.1337
  14   2.0000      -0.501420       -13.6443
  15   2.0000      -0.471276       -12.8241
  16   2.0000      -0.426168       -11.5966
  17   2.0000      -0.423072       -11.5124
  18   2.0000      -0.411111       -11.1869
  19   2.0000      -0.386689       -10.5224
  20   2.0000      -0.353774        -9.6267
  21   2.0000      -0.334515        -9.1026
  22   2.0000      -0.314497        -8.5579
  23   2.0000      -0.254233        -6.9180
  24   2.0000      -0.206867        -5.6291
  25   0.0000      -0.012021        -0.3271
  26   0.0000      -0.003584        -0.0975
  27   0.0000       0.002086         0.0568
  28   0.0000       0.009210         0.2506
  29   0.0000       0.014240         0.3875

MULLIKEN ATOMIC CHARGES
-----------------------
   0 C :   -0.871787
   1 C :   -0.318784
   2 C :   -0.551520
   3 C :   -0.318895
   4 C :   -0.871704
   5 C :    1.258009
   6 N :   -0.594157
   7 H :    0.052664
   8 H :    0.052851
   9 H :    0.471790
  10 H :    0.368944
  11 H :    0.481051
  12 H :    0.369055
  13 H :    0.472482
Sum of atomic charges:    0.0000000

LOEWDIN ATOMIC CHARGES
----------------------
   0 C :    0.195021
   1 C :    0.156063
   2 C :    0.156793
   3 C :    0.156062
   4 C :    0.195020
   5 C :   -0.272598
   6 N :    0.847283
   7 H :   -0.284158
   8 H :   -0.284158
   9 H :   -0.168450
  10 H :   -0.172779
  11 H :   -0.182871
  12 H :   -0.172779
  13 H :   -0.168449

  Mayer bond orders larger than 0.100000
B(  0-C ,  1-C ) :   1.1938 B(  0-C ,  2-C ) :   0.2474 B(  0-C ,  4-C ) :   0.4528
B(  0-C ,  5-C ) :   0.7248 B(  0-C , 13-H ) :   0.4426 B(  1-C ,  2-C ) :   1.1411
B(  1-C ,  3-C ) :  -0.1054 B(  1-C ,  5-C ) :  -0.2356 B(  1-C , 12-H ) :   0.8163
B(  2-C ,  3-C ) :   1.1425 B(  2-C ,  4-C ) :   0.2479 B(  2-C , 11-H ) :   0.5950
B(  3-C ,  4-C ) :   1.1939 B(  3-C ,  5-C ) :  -0.2357 B(  3-C , 10-H ) :   0.8158
B(  4-C ,  5-C ) :   0.7242 B(  4-C ,  9-H ) :   0.4431 B(  5-C ,  6-N ) :   0.5565
B(  6-N ,  7-H ) :   1.0903 B(  6-N ,  8-H ) :   1.0899

Dispersion correction           -0.022803413
FINAL SINGLE POINT ENERGY      -287.568791301741

DIPOLE MOMENT
-------------

Method             : SCF
Type of density    : Electron Density
Multiplicity       :   1
Irrep              :   0
Energy             :  -287.5459878886230740 Eh
Relativity type    :
Basis              : AO
                                X                 Y                 Z
Electronic contribution:     -0.090362104       0.000003132       0.037229952
Nuclear contribution   :     -0.743352745       0.000007126      -0.484101489
                        -----------------------------------------
Total Dipole Moment    :     -0.833714849       0.000010257      -0.446871537
                        -----------------------------------------
Magnitude (a.u.)       :      0.945925272
Magnitude (Debye)      :      2.404350965

Rotational constants in cm-1:             0.187523             0.086550             0.059285
Rotational constants in MHz :          5621.786837          2594.705838          1777.328239

                             ****ORCA TERMINATED NORMALLY****
TOTAL RUN TIME: 0 days 0 hours 2 minutes 4 seconds 808 msec
