                         Program Version 6.0.0  -   RELEASE  -
|  1> !PBE0 opt def2-SV(p) d3 TightSCF SlowConv RIJCOSX defgrid2
|  2>
|  3> %pal
|  4> nprocs 8
|  5> end
|  6>
|  7> %scf
|  8> MaxIter 1500
|  9> end
| 10>
| 11> %maxcore 3500
| 12>
| 13> !CPCM
| 14> %cpcm smd true
| 15> SMDsolvent "MeCN"
| 16> surfacetype gepol_ses
| 17> rsolv 2.19
| 18> end
| 19>
| 20> * xyz 0 1
| 21>   C           1.35661311001034      0.08242353673381     -0.04830147992154
| 22>   C           0.72528734400678      1.33237499260851      0.02931980589731
| 23>   C          -0.65716684626784      1.42571283843268      0.04302512633637
| 24>   C          -1.44754625606451      0.26653460954742      0.00874339988909
| 25>   C          -0.82552870874395     -0.98502153376474     -0.04770168852446
| 26>   C           0.56772235704198     -1.06633130194090     -0.08313298846277
| 27>   H           1.05006188676245     -2.04577688056741     -0.14354433447971
| 28>   H          -1.41135553820799     -1.90566385705075     -0.07389044457674
| 29>   O          -2.78063858244739      0.45554290336633      0.03645550634804
| 30>   C          -3.62283453444167     -0.66142074230683      0.01078196288993
| 31>   H          -4.65283077190408     -0.27592428677814      0.04102787975267
| 32>   H          -3.48787720923621     -1.25466269618222     -0.91406269819965
| 33>   H          -3.45860421924221     -1.31813897835911      0.88673287617431
| 34>   H          -1.16047233306293      2.39441311771435      0.09515969980486
| 35>   H           1.33361129819119      2.23967992641979      0.08145593960365
| 36>   S           3.13145786803727     -0.06127748319567     -0.01892864657318
| 37>   H           3.36519883556877      0.49010163532289     -1.23773021595817
| 38> *
| 39>
| 40>                          ****END OF INPUT****
 Total Charge           Charge          ....    0
 Multiplicity           Mult            ....    1
 Number of Electrons    NEL             ....   74
Dispersion correction           -0.015963584
FINAL SINGLE POINT ENERGY      -744.050886211621
Dispersion correction             ... done (  0.1 sec)
Dispersion correction           -0.015958252
FINAL SINGLE POINT ENERGY      -744.051026458506
Dispersion correction             ... done (  0.1 sec)
Dispersion correction           -0.015954615
FINAL SINGLE POINT ENERGY      -744.051192077034
Dispersion correction             ... done (  0.1 sec)
FINAL SINGLE POINT ENERGY      -744.051313323110
FINAL SINGLE POINT ENERGY      -744.051419151077
FINAL SINGLE POINT ENERGY      -744.051488738710
FINAL SINGLE POINT ENERGY      -744.051799334249
FINAL SINGLE POINT ENERGY      -744.051873602634
FINAL SINGLE POINT ENERGY      -744.051903410341
FINAL SINGLE POINT ENERGY      -744.051933404252
Dispersion correction             ... done (  0.1 sec)
Dispersion correction           -0.015972134
FINAL SINGLE POINT ENERGY      -744.051934575024
Dispersion correction             ... done (  0.1 sec)
Dispersion correction           -0.015972603
FINAL SINGLE POINT ENERGY      -744.051937715021
Dispersion correction             ... done (  0.1 sec)
                    ***********************HURRAY********************

CARTESIAN COORDINATES (ANGSTROEM)
---------------------------------
  C      1.356600   -0.004290   -0.208221
  C      0.756302    1.262367   -0.156905
  C     -0.624051    1.384988   -0.068942
  C     -1.445377    0.248601   -0.030875
  C     -0.850315   -1.017697   -0.083541
  C      0.537623   -1.135965   -0.170848
  H      0.978807   -2.137045   -0.209691
  H     -1.454234   -1.926782   -0.056800
  O     -2.771578    0.466219    0.055615
  C     -3.635785   -0.640968    0.099047
  H     -4.656980   -0.236629    0.167708
  H     -3.556372   -1.258253   -0.815457
  H     -3.442686   -1.276126    0.983956
  H     -1.090662    2.373113   -0.027875
  H      1.372062    2.166582   -0.186268
  S      3.109778   -0.235093   -0.320138
  H      3.441963    1.079542   -0.305355

 Multiplicity           Mult            ....    1
 Number of Electrons    NEL             ....   74
 Basis Dimension        Dim             ....  146

ORBITAL ENERGIES
----------------

  NO   OCC          E(Eh)            E(eV)
   0   2.0000     -89.007902     -2422.0281
   1   2.0000     -19.242352      -523.6110
   2   2.0000     -10.297330      -280.2046
   3   2.0000     -10.270050      -279.4623
   4   2.0000     -10.269783      -279.4550
   5   2.0000     -10.243410      -278.7373
   6   2.0000     -10.242809      -278.7210
   7   2.0000     -10.236902      -278.5603
   8   2.0000     -10.235583      -278.5244
   9   2.0000      -8.010326      -217.9721
  10   2.0000      -5.952603      -161.9786
  11   2.0000      -5.948877      -161.8772
  12   2.0000      -5.942837      -161.7128
  13   2.0000      -1.092577       -29.7305
  14   2.0000      -0.886176       -24.1141
  15   2.0000      -0.808363       -21.9967
  16   2.0000      -0.771346       -20.9894
  17   2.0000      -0.742281       -20.1985
  18   2.0000      -0.689925       -18.7738
  19   2.0000      -0.631724       -17.1901
  20   2.0000      -0.598193       -16.2777
  21   2.0000      -0.552144       -15.0246
  22   2.0000      -0.512711       -13.9516
  23   2.0000      -0.483578       -13.1588
  24   2.0000      -0.483415       -13.1544
  25   2.0000      -0.459339       -12.4992
  26   2.0000      -0.440073       -11.9750
  27   2.0000      -0.433056       -11.7840
  28   2.0000      -0.404218       -10.9993
  29   2.0000      -0.403688       -10.9849
  30   2.0000      -0.373933       -10.1752
  31   2.0000      -0.353669        -9.6238
  32   2.0000      -0.352753        -9.5989
  33   2.0000      -0.338025        -9.1981
  34   2.0000      -0.286492        -7.7958
  35   2.0000      -0.275311        -7.4916
  36   2.0000      -0.214458        -5.8357
  37   0.0000      -0.011061        -0.3010
  38   0.0000       0.006570         0.1788
  39   0.0000       0.032062         0.8725
  40   0.0000       0.082030         2.2321
  41   0.0000       0.099679         2.7124

MULLIKEN ATOMIC CHARGES
-----------------------
   0 C :   -0.031390
   1 C :   -0.159219
   2 C :   -0.179005
   3 C :    0.272812
   4 C :   -0.253270
   5 C :   -0.141571
   6 H :    0.122886
   7 H :    0.129576
   8 O :   -0.338113
   9 C :   -0.180337
  10 H :    0.161595
  11 H :    0.148055
  12 H :    0.147969
  13 H :    0.115238
  14 H :    0.125252
  15 S :   -0.150491
  16 H :    0.210010
Sum of atomic charges:   -0.0000000

LOEWDIN ATOMIC CHARGES
----------------------
   0 C :   -0.202607
   1 C :   -0.150420
   2 C :   -0.155918
   3 C :    0.022696
   4 C :   -0.180778
   5 C :   -0.147853
   6 H :    0.143078
   7 H :    0.151136
   8 O :   -0.119567
   9 C :   -0.206018
  10 H :    0.131720
  11 H :    0.120652
  12 H :    0.120663
  13 H :    0.147033
  14 H :    0.145041
  15 S :    0.068646
  16 H :    0.112498

  Mayer bond orders larger than 0.100000
B(  0-C ,  1-C ) :   1.3576 B(  0-C ,  5-C ) :   1.3755 B(  0-C , 15-S ) :   1.0141
B(  1-C ,  2-C ) :   1.4268 B(  1-C , 14-H ) :   0.9566 B(  2-C ,  3-C ) :   1.3374
B(  2-C , 13-H ) :   0.9634 B(  3-C ,  4-C ) :   1.3026 B(  3-C ,  8-O ) :   1.1170
B(  4-C ,  5-C ) :   1.4016 B(  4-C ,  7-H ) :   0.9597 B(  5-C ,  6-H ) :   0.9594
B(  8-O ,  9-C ) :   0.9409 B(  9-C , 10-H ) :   0.9533 B(  9-C , 11-H ) :   0.9401
B(  9-C , 12-H ) :   0.9402 B( 15-S , 16-H ) :   0.8973

Dispersion correction           -0.015972940
FINAL SINGLE POINT ENERGY      -744.051936742841

DIPOLE MOMENT
-------------

Method             : SCF
Type of density    : Electron Density
Multiplicity       :   1
Irrep              :   0
Energy             :  -744.0359638025511231 Eh
Relativity type    :
Basis              : AO
                                X                 Y                 Z
Electronic contribution:      7.312935796       1.027774329      -0.459968198
Nuclear contribution   :     -8.018157611      -1.119377703       0.511297331
                        -----------------------------------------
Total Dipole Moment    :     -0.705221815      -0.091603374       0.051329133
                        -----------------------------------------
Magnitude (a.u.)       :      0.712996260
Magnitude (Debye)      :      1.812292468

Rotational constants in cm-1:             0.159159             0.023036             0.020203
Rotational constants in MHz :          4771.469712           690.603954           605.656809

                             ****ORCA TERMINATED NORMALLY****
TOTAL RUN TIME: 0 days 0 hours 11 minutes 33 seconds 318 msec
