                         Program Version 6.0.0  -   RELEASE  -
|  1> !r2SCANh aug-cc-pVTZ d3 TightSCF SlowConv RIJCOSX defgrid2
|  2>
|  3> %pal
|  4> nprocs 4
|  5> end
|  6>
|  7> %scf
|  8> MaxIter 1500
|  9> end
| 10>
| 11> %maxcore 3000
| 12>
| 13> !CPCM
| 14> %cpcm smd true
| 15> SMDsolvent "MeCN"
| 16> surfacetype gepol_ses
| 17> rsolv 2.19
| 18> end
| 19>
| 20> * xyz 0 1
| 21> C          -1.46623314437860      0.00011003866901      0.22138384864377
| 22> C          -0.72146821550608     -1.25556136021306     -0.22481675803302
| 23> C           0.73262554024155     -1.20678755712777      0.22695422389648
| 24> N           1.36188913054653     -0.00003006922571     -0.26913603967446
| 25> H           2.35649748423742      0.00003991081311     -0.05534562705397
| 26> C           0.73253990701766      1.20675926009467      0.22704999760922
| 27> C          -0.72144308108941      1.25558522950449     -0.22511308939031
| 28> H          -1.21016137962431      2.16287914838208      0.17240179576001
| 29> H          -0.74244280115887      1.32521043142589     -1.32823766113094
| 30> H           1.28241123896761      2.08000889090111     -0.16483545442717
| 31> H           0.76101367989671      1.27620173910910      1.34294202221842
| 32> H           1.28219641826463     -2.08008378359356     -0.16534993713385
| 33> H           0.76183907670503     -1.27697357186768      1.34279799676324
| 34> H          -1.21020710908673     -2.16266625677100      0.17304098184531
| 35> H          -0.74264320710994     -1.32505523098441     -1.32794132635220
| 36> H          -2.49942641463124      0.00003764837706     -0.16886144147242
| 37> H          -1.54597222329197      0.00034473250668      1.32642866793188
| 38> *
| 39>
| 40>                          ****END OF INPUT****

CARTESIAN COORDINATES (ANGSTROEM)
---------------------------------
  C     -1.466233    0.000110    0.221384
  C     -0.721468   -1.255561   -0.224817
  C      0.732626   -1.206788    0.226954
  N      1.361889   -0.000030   -0.269136
  H      2.356497    0.000040   -0.055346
  C      0.732540    1.206759    0.227050
  C     -0.721443    1.255585   -0.225113
  H     -1.210161    2.162879    0.172402
  H     -0.742443    1.325210   -1.328238
  H      1.282411    2.080009   -0.164835
  H      0.761014    1.276202    1.342942
  H      1.282196   -2.080084   -0.165350
  H      0.761839   -1.276974    1.342798
  H     -1.210207   -2.162666    0.173041
  H     -0.742643   -1.325055   -1.327941
  H     -2.499426    0.000038   -0.168861
  H     -1.545972    0.000345    1.326429

 Total Charge           Charge          ....    0
 Multiplicity           Mult            ....    1
 Number of Electrons    NEL             ....   48
 Basis Dimension        Dim             ....  529

ORBITAL ENERGIES
----------------

  NO   OCC          E(Eh)            E(eV)
   0   2.0000     -14.282407      -388.6440
   1   2.0000     -10.166711      -276.6503
   2   2.0000     -10.166708      -276.6502
   3   2.0000     -10.141890      -275.9749
   4   2.0000     -10.140543      -275.9382
   5   2.0000     -10.140527      -275.9378
   6   2.0000      -0.907979       -24.7074
   7   2.0000      -0.776200       -21.1215
   8   2.0000      -0.740744       -20.1567
   9   2.0000      -0.620466       -16.8837
  10   2.0000      -0.604707       -16.4549
  11   2.0000      -0.533416       -14.5150
  12   2.0000      -0.496349       -13.5063
  13   2.0000      -0.433609       -11.7991
  14   2.0000      -0.432829       -11.7779
  15   2.0000      -0.404685       -11.0121
  16   2.0000      -0.390866       -10.6360
  17   2.0000      -0.384761       -10.4699
  18   2.0000      -0.363275        -9.8852
  19   2.0000      -0.323615        -8.8060
  20   2.0000      -0.305943        -8.3251
  21   2.0000      -0.292960        -7.9719
  22   2.0000      -0.290650        -7.9090
  23   2.0000      -0.211882        -5.7656
  24   0.0000       0.014385         0.3914
  25   0.0000       0.026616         0.7243
  26   0.0000       0.029523         0.8034
  27   0.0000       0.031462         0.8561
  28   0.0000       0.050642         1.3780

MULLIKEN ATOMIC CHARGES
-----------------------
   0 C :   -0.211699
   1 C :   -0.311090
   2 C :   -0.282859
   3 N :   -0.296122
   4 H :   -0.045028
   5 C :   -0.282961
   6 C :   -0.311094
   7 H :    0.219771
   8 H :    0.086886
   9 H :    0.276874
  10 H :    0.134582
  11 H :    0.276956
  12 H :    0.134425
  13 H :    0.219804
  14 H :    0.086898
  15 H :    0.182356
  16 H :    0.122302
Sum of atomic charges:   -0.0000000

LOEWDIN ATOMIC CHARGES
----------------------
   0 C :    0.263652
   1 C :    0.263393
   2 C :    0.137801
   3 N :    0.549987
   4 H :   -0.286972
   5 C :    0.137920
   6 C :    0.263322
   7 H :   -0.132913
   8 H :   -0.137817
   9 H :   -0.134966
  10 H :   -0.124669
  11 H :   -0.134975
  12 H :   -0.124630
  13 H :   -0.132918
  14 H :   -0.137831
  15 H :   -0.133698
  16 H :   -0.134685

  Mayer bond orders larger than 0.100000
B(  0-C ,  1-C ) :   0.8954 B(  0-C ,  6-C ) :   0.8953 B(  0-C , 15-H ) :   0.9765
B(  0-C , 16-H ) :   0.9991 B(  1-C ,  2-C ) :   0.9156 B(  1-C ,  6-C ) :   0.1074
B(  1-C , 13-H ) :   0.9209 B(  1-C , 14-H ) :   1.0570 B(  2-C ,  3-N ) :   0.8863
B(  2-C , 11-H ) :   0.9143 B(  2-C , 12-H ) :   0.9909 B(  3-N ,  4-H ) :   1.0392
B(  3-N ,  5-C ) :   0.8863 B(  5-C ,  6-C ) :   0.9158 B(  5-C ,  9-H ) :   0.9144
B(  5-C , 10-H ) :   0.9908 B(  6-C ,  7-H ) :   0.9208 B(  6-C ,  8-H ) :   1.0569

Dispersion correction           -0.004221543
FINAL SINGLE POINT ENERGY      -251.843583157235

DIPOLE MOMENT
-------------

Method             : SCF
Type of density    : Electron Density
Multiplicity       :   1
Irrep              :   0
Energy             :  -251.8393616143448810 Eh
Relativity type    :
Basis              : AO
                                X                 Y                 Z
Electronic contribution:      1.559832355       0.000232600      -0.580321479
Nuclear contribution   :     -1.432111276      -0.000148884       1.063195941
                        -----------------------------------------
Total Dipole Moment    :      0.127721079       0.000083716       0.482874462
                        -----------------------------------------
Magnitude (a.u.)       :      0.499480156
Magnitude (Debye)      :      1.269577663

Rotational constants in cm-1:             0.151873             0.148898             0.085191
Rotational constants in MHz :          4553.029667          4463.848294          2553.974723

                             ****ORCA TERMINATED NORMALLY****
TOTAL RUN TIME: 0 days 0 hours 3 minutes 49 seconds 397 msec
