                         Program Version 6.0.0  -   RELEASE  -
|  1> !PBE0 def2-SV(p) Opt Freq d3 TightSCF SlowConv RIJCOSX defgrid2
|  2>
|  3> %pal
|  4> nprocs 15
|  5> end
|  6>
|  7> %scf
|  8> MaxIter 1500
|  9> end
| 10>
| 11> %maxcore 3500
| 12>
| 13>
| 14>
| 15> * xyz 1 1
| 16> 6       -0.104305000     -0.040471000     -1.061442000
| 17> 6       -0.055499000     -0.991184000     -0.122371000
| 18> 6       -0.129922000     -0.445247000      1.268353000
| 19> 7       -0.238424000      1.025539000      0.973169000
| 20> 6       -0.212745000      1.348463000     -0.488788000
| 21> 1        0.036661000     -2.061601000     -0.317018000
| 22> 8       -0.331221000      1.839720000      1.811635000
| 23> 6       -0.035390000     -0.219010000     -2.530203000
| 24> 8        0.002221000     -1.496547000     -2.864557000
| 25> 6       -1.515305000      2.079031000     -0.834583000
| 26> 1       -1.493924000      2.276443000     -1.918104000
| 27> 1       -2.398854000      1.461271000     -0.605172000
| 28> 1       -1.574780000      3.035953000     -0.291517000
| 29> 6        1.019510000      2.227833000     -0.745184000
| 30> 1        0.924929000      3.186261000     -0.209445000
| 31> 1        1.949207000      1.718350000     -0.443835000
| 32> 1        1.057259000      2.413876000     -1.830259000
| 33> 6        1.145821000     -0.659998000      2.092454000
| 34> 1        1.247445000     -1.740261000      2.285663000
| 35> 1        2.041626000     -0.320447000      1.547889000
| 36> 1        1.073395000     -0.134553000      3.058866000
| 37> 6       -1.389732000     -0.857605000      2.039362000
| 38> 1       -2.303589000     -0.656477000      1.457253000
| 39> 1       -1.331677000     -1.941487000      2.230145000
| 40> 1       -1.438572000     -0.330924000      3.006349000
| 41> 7       -0.011763386      0.888524380     -3.496489386
| 42> 1       -0.398681534      1.758108057     -3.155536768
| 43> 1       -0.367899851      0.659089711     -4.414452710
| 44> *
| 45>
| 46>                          ****END OF INPUT****
 Total Charge           Charge          ....    1
 Multiplicity           Mult            ....    1
 Number of Electrons    NEL             ....   98
Dispersion correction           -0.028824075
FINAL SINGLE POINT ENERGY      -610.432639456910
Dispersion correction             ... done (  0.1 sec)
Dispersion correction           -0.028665870
FINAL SINGLE POINT ENERGY      -610.462476588974
Dispersion correction             ... done (  0.1 sec)
Dispersion correction           -0.028649881
FINAL SINGLE POINT ENERGY      -610.467472432851
Dispersion correction             ... done (  0.1 sec)
FINAL SINGLE POINT ENERGY      -610.468951547774
FINAL SINGLE POINT ENERGY      -610.468740403581
FINAL SINGLE POINT ENERGY      -610.469538362996
FINAL SINGLE POINT ENERGY      -610.469657498510
FINAL SINGLE POINT ENERGY      -610.469766207623
FINAL SINGLE POINT ENERGY      -610.469830220416
FINAL SINGLE POINT ENERGY      -610.469848079458
FINAL SINGLE POINT ENERGY      -610.469887512254
FINAL SINGLE POINT ENERGY      -610.469899849926
FINAL SINGLE POINT ENERGY      -610.469909701282
FINAL SINGLE POINT ENERGY      -610.469915187153
FINAL SINGLE POINT ENERGY      -610.469919605558
FINAL SINGLE POINT ENERGY      -610.469921426782
FINAL SINGLE POINT ENERGY      -610.469922352854
Dispersion correction             ... done (  0.1 sec)
Dispersion correction           -0.028569257
FINAL SINGLE POINT ENERGY      -610.469922697795
Dispersion correction             ... done (  0.1 sec)
Dispersion correction           -0.028569902
FINAL SINGLE POINT ENERGY      -610.469922818090
Dispersion correction             ... done (  0.1 sec)
                    ***********************HURRAY********************

CARTESIAN COORDINATES (ANGSTROEM)
---------------------------------
  C     -0.127835    0.031343   -1.095151
  C     -0.077716   -0.929712   -0.167109
  C     -0.129196   -0.426839    1.235858
  N     -0.221785    1.048440    0.981802
  C     -0.228153    1.408451   -0.483448
  H     -0.005627   -1.990979   -0.417421
  O     -0.282840    1.848411    1.835905
  C     -0.085186   -0.358791   -2.552764
  O     -0.011826   -1.530293   -2.841681
  C     -1.554599    2.136319   -0.742196
  H     -1.615596    2.402100   -1.808745
  H     -2.416728    1.490396   -0.509903
  H     -1.608670    3.063151   -0.148078
  C      0.991980    2.311758   -0.708630
  H      0.905717    3.233566   -0.110319
  H      1.928569    1.788075   -0.457687
  H      1.041506    2.592819   -1.771810
  C      1.151109   -0.680436    2.043286
  H      1.238993   -1.768025    2.198111
  H      2.045963   -0.336993    1.499678
  H      1.094533   -0.185690    3.026712
  C     -1.386700   -0.844364    2.010590
  H     -2.303865   -0.618642    1.443132
  H     -1.337321   -1.934263    2.166219
  H     -1.418587   -0.346746    2.993563
  N     -0.133865    0.635341   -3.472841
  H     -0.184393    1.619928   -3.253016
  H     -0.102091    0.364325   -4.451874

 Multiplicity           Mult            ....    1
 Number of Electrons    NEL             ....   98
 Basis Dimension        Dim             ....  212

ORBITAL ENERGIES
----------------

  NO   OCC          E(Eh)            E(eV)
   0   2.0000     -19.521039      -531.1945
   1   2.0000     -19.306787      -525.3644
   2   2.0000     -14.800253      -402.7353
   3   2.0000     -14.546907      -395.8415
   4   2.0000     -10.495122      -285.5868
   5   2.0000     -10.488904      -285.4176
   6   2.0000     -10.479223      -285.1542
   7   2.0000     -10.420057      -283.5442
   8   2.0000     -10.414935      -283.4048
   9   2.0000     -10.408377      -283.2263
  10   2.0000     -10.408146      -283.2201
  11   2.0000     -10.402039      -283.0539
  12   2.0000     -10.402028      -283.0536
  13   2.0000      -1.469586       -39.9895
  14   2.0000      -1.194723       -32.5101
  15   2.0000      -1.141048       -31.0495
  16   2.0000      -1.062009       -28.8987
  17   2.0000      -1.036414       -28.2023
  18   2.0000      -0.954455       -25.9720
  19   2.0000      -0.931809       -25.3558
  20   2.0000      -0.898777       -24.4570
  21   2.0000      -0.883463       -24.0402
  22   2.0000      -0.836633       -22.7660
  23   2.0000      -0.828584       -22.5469
  24   2.0000      -0.789720       -21.4894
  25   2.0000      -0.751404       -20.4467
  26   2.0000      -0.748163       -20.3586
  27   2.0000      -0.715341       -19.4654
  28   2.0000      -0.706859       -19.2346
  29   2.0000      -0.668324       -18.1860
  30   2.0000      -0.655824       -17.8459
  31   2.0000      -0.626464       -17.0470
  32   2.0000      -0.625802       -17.0289
  33   2.0000      -0.621404       -16.9093
  34   2.0000      -0.608564       -16.5599
  35   2.0000      -0.595135       -16.1944
  36   2.0000      -0.590658       -16.0726
  37   2.0000      -0.583302       -15.8725
  38   2.0000      -0.571526       -15.5520
  39   2.0000      -0.567928       -15.4541
  40   2.0000      -0.566022       -15.4022
  41   2.0000      -0.551366       -15.0034
  42   2.0000      -0.546737       -14.8775
  43   2.0000      -0.544396       -14.8138
  44   2.0000      -0.532066       -14.4782
  45   2.0000      -0.513079       -13.9616
  46   2.0000      -0.445963       -12.1353
  47   2.0000      -0.417497       -11.3607
  48   2.0000      -0.409208       -11.1351
  49   0.0000      -0.326720        -8.8905
  50   0.0000      -0.189405        -5.1540
  51   0.0000      -0.101773        -2.7694
  52   0.0000      -0.086707        -2.3594
  53   0.0000      -0.073104        -1.9893

MULLIKEN ATOMIC CHARGES
-----------------------
   0 C :   -0.023224
   1 C :   -0.117394
   2 C :   -0.204293
   3 N :    0.077152
   4 C :   -0.264150
   5 H :    0.172697
   6 O :   -0.012445
   7 C :    0.250581
   8 O :   -0.209851
   9 C :   -0.247753
  10 H :    0.175437
  11 H :    0.179483
  12 H :    0.187107
  13 C :   -0.249628
  14 H :    0.187453
  15 H :    0.179718
  16 H :    0.175377
  17 C :   -0.255061
  18 H :    0.196840
  19 H :    0.175299
  20 H :    0.185427
  21 C :   -0.254419
  22 H :    0.175359
  23 H :    0.196813
  24 H :    0.185223
  25 N :   -0.432140
  26 H :    0.271895
  27 H :    0.298497
Sum of atomic charges:    1.0000000

LOEWDIN ATOMIC CHARGES
----------------------
   0 C :   -0.077651
   1 C :   -0.067467
   2 C :   -0.048639
   3 N :    0.317839
   4 C :   -0.040775
   5 H :    0.177604
   6 O :    0.055803
   7 C :    0.060634
   8 O :   -0.179005
   9 C :   -0.312066
  10 H :    0.153409
  11 H :    0.150222
  12 H :    0.152794
  13 C :   -0.312437
  14 H :    0.152968
  15 H :    0.150309
  16 H :    0.152961
  17 C :   -0.308213
  18 H :    0.167491
  19 H :    0.147053
  20 H :    0.152034
  21 C :   -0.308054
  22 H :    0.147045
  23 H :    0.167489
  24 H :    0.152019
  25 N :   -0.309656
  26 H :    0.237470
  27 H :    0.268819

  Mayer bond orders larger than 0.100000
B(  0-C ,  1-C ) :   1.8951 B(  0-C ,  4-C ) :   0.9123 B(  0-C ,  7-C ) :   0.8867
B(  1-C ,  2-C ) :   0.9220 B(  1-C ,  5-H ) :   0.9469 B(  2-C ,  3-N ) :   0.7492
B(  2-C , 17-C ) :   1.0277 B(  2-C , 21-C ) :   1.0280 B(  3-N ,  4-C ) :   0.7509
B(  3-N ,  6-O ) :   1.8461 B(  4-C ,  9-C ) :   1.0421 B(  4-C , 13-C ) :   1.0423
B(  7-C ,  8-O ) :   2.1343 B(  7-C , 25-N ) :   1.2890 B(  9-C , 10-H ) :   0.9254
B(  9-C , 11-H ) :   0.9265 B(  9-C , 12-H ) :   0.9219 B( 13-C , 14-H ) :   0.9217
B( 13-C , 15-H ) :   0.9266 B( 13-C , 16-H ) :   0.9255 B( 17-C , 18-H ) :   0.9263
B( 17-C , 19-H ) :   0.9299 B( 17-C , 20-H ) :   0.9229 B( 21-C , 22-H ) :   0.9298
B( 21-C , 23-H ) :   0.9263 B( 21-C , 24-H ) :   0.9228 B( 25-N , 26-H ) :   0.8422
B( 25-N , 27-H ) :   0.8445

Dispersion correction           -0.028569813
FINAL SINGLE POINT ENERGY      -610.469922887189

DIPOLE MOMENT
-------------

Method             : SCF
Type of density    : Electron Density
Multiplicity       :   1
Irrep              :   0
Energy             :  -610.4413530741135219 Eh
Relativity type    :
Basis              : AO
                                X                 Y                 Z
Electronic contribution:      0.182828808      -1.989405583      -3.536612330
Nuclear contribution   :     -0.277270832       3.421665314       4.666505617
                        -----------------------------------------
Total Dipole Moment    :     -0.094442024       1.432259731       1.129893286
                        -----------------------------------------
Magnitude (a.u.)       :      1.826730979
Magnitude (Debye)      :      4.643181150

VIBRATIONAL FREQUENCIES
-----------------------

Scaling factor for frequencies =  1.000000000  (already applied!)

     0:       0.00 cm**-1
     1:       0.00 cm**-1
     2:       0.00 cm**-1
     3:       0.00 cm**-1
     4:       0.00 cm**-1
     5:       0.00 cm**-1
     6:      30.76 cm**-1
     7:      50.46 cm**-1
     8:      89.00 cm**-1
     9:     156.19 cm**-1
    10:     162.34 cm**-1
    11:     177.07 cm**-1
    12:     206.85 cm**-1
    13:     225.31 cm**-1
    14:     226.03 cm**-1
    15:     253.20 cm**-1
    16:     263.99 cm**-1
    17:     279.08 cm**-1
    18:     296.89 cm**-1
    19:     303.89 cm**-1
    20:     318.12 cm**-1
    21:     334.68 cm**-1
    22:     397.01 cm**-1
    23:     410.62 cm**-1
    24:     437.37 cm**-1
    25:     543.39 cm**-1
    26:     555.30 cm**-1
    27:     613.31 cm**-1
    28:     634.43 cm**-1
    29:     639.01 cm**-1
    30:     705.29 cm**-1
    31:     750.68 cm**-1
    32:     752.12 cm**-1
    33:     784.31 cm**-1
    34:     869.44 cm**-1
    35:     931.77 cm**-1
    36:     935.02 cm**-1
    37:     958.70 cm**-1
    38:     963.13 cm**-1
    39:     970.33 cm**-1
    40:    1005.27 cm**-1
    41:    1026.58 cm**-1
    42:    1029.66 cm**-1
    43:    1060.82 cm**-1
    44:    1100.70 cm**-1
    45:    1143.78 cm**-1
    46:    1149.53 cm**-1
    47:    1185.35 cm**-1
    48:    1197.26 cm**-1
    49:    1206.86 cm**-1
    50:    1310.33 cm**-1
    51:    1355.95 cm**-1
    52:    1376.72 cm**-1
    53:    1385.26 cm**-1
    54:    1400.45 cm**-1
    55:    1408.18 cm**-1
    56:    1416.88 cm**-1
    57:    1448.47 cm**-1
    58:    1455.08 cm**-1
    59:    1460.75 cm**-1
    60:    1465.78 cm**-1
    61:    1471.38 cm**-1
    62:    1476.88 cm**-1
    63:    1487.45 cm**-1
    64:    1491.31 cm**-1
    65:    1629.56 cm**-1
    66:    1734.79 cm**-1
    67:    1863.90 cm**-1
    68:    1874.49 cm**-1
    69:    3060.14 cm**-1
    70:    3060.62 cm**-1
    71:    3064.36 cm**-1
    72:    3065.09 cm**-1
    73:    3169.26 cm**-1
    74:    3169.84 cm**-1
    75:    3170.15 cm**-1
    76:    3170.72 cm**-1
    77:    3171.43 cm**-1
    78:    3172.33 cm**-1
    79:    3176.33 cm**-1
    80:    3177.98 cm**-1
    81:    3245.71 cm**-1
    82:    3571.51 cm**-1
    83:    3703.33 cm**-1

IR SPECTRUM
-----------

 Mode   freq       eps      Int      T**2         TX        TY        TZ
       cm**-1   L/(mol*cm) km/mol    a.u.
----------------------------------------------------------------------------
  6:     30.76   0.005021   25.37  0.050930  (-0.225328 -0.011788 -0.004262)
  7:     50.46   0.000164    0.83  0.001017  (-0.031860 -0.001149 -0.000672)
  8:     89.00   0.000126    0.64  0.000443  ( 0.021035  0.000341 -0.000020)
  9:    156.19   0.003617   18.28  0.007226  ( 0.084583  0.001444  0.008338)
 10:    162.34   0.001393    7.04  0.002677  (-0.011903 -0.013049  0.048629)
 11:    177.07   0.000239    1.21  0.000421  (-0.020406 -0.001798 -0.001342)
 12:    206.85   0.000002    0.01  0.000003  ( 0.001595  0.000783  0.000398)
 13:    225.31   0.000430    2.17  0.000596  (-0.000458 -0.015882 -0.018532)
 14:    226.03   0.000235    1.19  0.000325  (-0.018026 -0.000163  0.000226)
 15:    253.20   0.000048    0.24  0.000059  (-0.002318  0.005440 -0.004931)
 16:    263.99   0.002567   12.97  0.003035  (-0.055008 -0.002746 -0.001209)
 17:    279.08   0.000063    0.32  0.000071  (-0.001914  0.000591  0.008173)
 18:    296.89   0.000091    0.46  0.000096  (-0.000114  0.004340 -0.008780)
 19:    303.89   0.020966  105.95  0.021529  ( 0.146541  0.006583  0.003413)
 20:    318.12   0.000911    4.61  0.000894  ( 0.006571 -0.018221 -0.022781)
 21:    334.68   0.000667    3.37  0.000622  ( 0.000427  0.009187 -0.023189)
 22:    397.01   0.000660    3.34  0.000519  ( 0.001155 -0.008488  0.021112)
 23:    410.62   0.003540   17.89  0.002690  (-0.051752 -0.003295 -0.001021)
 24:    437.37   0.000906    4.58  0.000647  (-0.002065  0.024685  0.005754)
 25:    543.39   0.005011   25.33  0.002878  (-0.053540 -0.002920 -0.001712)
 26:    555.30   0.001201    6.07  0.000675  ( 0.001196 -0.012101 -0.022957)
 27:    613.31   0.001124    5.68  0.000572  ( 0.000318 -0.004740 -0.023438)
 28:    634.43   0.002590   13.09  0.001274  ( 0.035649  0.001656  0.000354)
 29:    639.01   0.000665    3.36  0.000325  ( 0.001522  0.003976  0.017510)
 30:    705.29   0.001951    9.86  0.000863  (-0.000063  0.007892 -0.028300)
 31:    750.68   0.000012    0.06  0.000005  ( 0.001162  0.000009  0.001914)
 32:    752.12   0.001722    8.70  0.000715  (-0.000418 -0.001499  0.026686)
 33:    784.31   0.006580   33.25  0.002618  ( 0.051064  0.003193  0.000556)
 34:    869.44   0.000531    2.68  0.000190  (-0.000775  0.011474  0.007631)
 35:    931.77   0.000740    3.74  0.000248  (-0.000266  0.011283 -0.010979)
 36:    935.02   0.002305   11.65  0.000769  ( 0.027681  0.001593  0.000823)
 37:    958.70   0.000063    0.32  0.000021  ( 0.004543  0.000151  0.000067)
 38:    963.13   0.000223    1.13  0.000072  ( 0.008483  0.000495 -0.000145)
 39:    970.33   0.001058    5.35  0.000340  (-0.000495  0.002212  0.018310)
 40:   1005.27   0.000015    0.08  0.000005  (-0.002095 -0.000419  0.000251)
 41:   1026.58   0.007992   40.39  0.002429  ( 0.001851 -0.034218  0.035427)
 42:   1029.66   0.000192    0.97  0.000058  ( 0.007608  0.000203  0.000440)
 43:   1060.82   0.002443   12.35  0.000719  ( 0.000150 -0.008855  0.025305)
 44:   1100.70   0.000383    1.94  0.000109  ( 0.000834 -0.008288 -0.006271)
 45:   1143.78   0.000014    0.07  0.000004  (-0.001956 -0.000068 -0.000047)
 46:   1149.53   0.000259    1.31  0.000070  ( 0.000335 -0.004304 -0.007187)
 47:   1185.35   0.000137    0.69  0.000036  ( 0.000416 -0.004470 -0.003981)
 48:   1197.26   0.001547    7.82  0.000403  (-0.000735  0.002633  0.019892)
 49:   1206.86   0.001016    5.14  0.000263  (-0.016181 -0.000946 -0.000310)
 50:   1310.33   0.004672   23.61  0.001113  ( 0.002251 -0.032105 -0.008765)
 51:   1355.95   0.002737   13.83  0.000630  (-0.000190  0.006206 -0.024318)
 52:   1376.72   0.000395    1.99  0.000089  (-0.009430 -0.000670 -0.000282)
 53:   1385.26   0.002241   11.33  0.000505  ( 0.022442  0.001131  0.000048)
 54:   1400.45   0.001806    9.13  0.000402  (-0.000903  0.020023  0.000884)
 55:   1408.18   0.005139   25.97  0.001139  ( 0.000527 -0.017870  0.028620)
 56:   1416.88   0.033700  170.31  0.007422  ( 0.000649  0.006580 -0.085899)
 57:   1448.47   0.000287    1.45  0.000062  (-0.007838 -0.000531 -0.000141)
 58:   1455.08   0.005274   26.65  0.001131  (-0.033561 -0.002132 -0.000370)
 59:   1460.75   0.000011    0.06  0.000002  (-0.001463 -0.000408  0.000201)
 60:   1465.78   0.000001    0.01  0.000000  ( 0.000309 -0.000446 -0.000098)
 61:   1471.38   0.005254   26.55  0.001114  ( 0.002099 -0.031973  0.009358)
 62:   1476.88   0.001857    9.39  0.000392  (-0.000506  0.003870  0.019422)
 63:   1487.45   0.002154   10.88  0.000452  (-0.001302  0.021085 -0.002364)
 64:   1491.31   0.003217   16.26  0.000673  (-0.001254  0.018377  0.018274)
 65:   1629.56   0.033238  167.97  0.006365  (-0.000532  0.031869 -0.073139)
 66:   1734.79   0.002240   11.32  0.000403  (-0.000502  0.003500  0.019760)
 67:   1863.90   0.060331  304.89  0.010101  (-0.006090  0.099563  0.012287)
 68:   1874.49   0.005625   28.43  0.000937  (-0.000726  0.005880  0.030024)
 69:   3060.14   0.000030    0.15  0.000003  (-0.001557 -0.000731  0.000259)
 70:   3060.62   0.000076    0.38  0.000008  (-0.000591  0.002461 -0.001142)
 71:   3064.36   0.000011    0.05  0.000001  ( 0.000874  0.000070 -0.000569)
 72:   3065.09   0.000069    0.35  0.000007  ( 0.000054 -0.000468  0.002611)
 73:   3169.26   0.000057    0.29  0.000006  (-0.002346  0.000331  0.000163)
 74:   3169.84   0.000146    0.74  0.000014  ( 0.003746  0.000176  0.000595)
 75:   3170.15   0.000135    0.68  0.000013  (-0.001431  0.003334  0.000306)
 76:   3170.72   0.000255    1.29  0.000025  ( 0.004937  0.000804  0.000267)
 77:   3171.43   0.000399    2.02  0.000039  (-0.000963 -0.005415  0.003004)
 78:   3172.33   0.000733    3.70  0.000072  (-0.001035  0.007957 -0.002777)
 79:   3176.33   0.000254    1.28  0.000025  ( 0.004956  0.000549  0.000241)
 80:   3177.98   0.000077    0.39  0.000008  ( 0.000603 -0.001613  0.002144)
 81:   3245.71   0.003774   19.07  0.000363  ( 0.001255 -0.018052 -0.005947)
 82:   3571.51   0.022416  113.28  0.001959  (-0.000211 -0.010286  0.043044)
 83:   3703.33   0.011974   60.51  0.001009  ( 0.001370 -0.021534 -0.023311)

--------------------------
THERMOCHEMISTRY AT 298.15K
--------------------------

Temperature         ...   298.15 K
Pressure            ...     1.00 atm
Total Mass          ...   183.23 AMU
Quasi RRHO          ...     True
Cut-Off Frequency   ...     1.00 cm^-1

Throughout the following assumptions are being made:
  (1) The electronic state is orbitally nondegenerate
  (2) There are no thermally accessible electronically excited states
  (3) Hindered rotations indicated by low frequency modes are not
      treated as such but are treated as vibrations and this may
      cause some error
  (4) All equations used are the standard statistical mechanics
      equations for an ideal gas
  (5) All vibrations are strictly harmonic

freq.      30.76  E(vib)   ...       0.55
freq.      50.46  E(vib)   ...       0.52
freq.      89.00  E(vib)   ...       0.47
freq.     156.19  E(vib)   ...       0.40
freq.     162.34  E(vib)   ...       0.39
freq.     177.07  E(vib)   ...       0.37
freq.     206.85  E(vib)   ...       0.35
freq.     225.31  E(vib)   ...       0.33
freq.     226.03  E(vib)   ...       0.33
freq.     253.20  E(vib)   ...       0.30
freq.     263.99  E(vib)   ...       0.29
freq.     279.08  E(vib)   ...       0.28
freq.     296.89  E(vib)   ...       0.27
freq.     303.89  E(vib)   ...       0.26
freq.     318.12  E(vib)   ...       0.25
freq.     334.68  E(vib)   ...       0.24
freq.     397.01  E(vib)   ...       0.20
freq.     410.62  E(vib)   ...       0.19
freq.     437.37  E(vib)   ...       0.17
freq.     543.39  E(vib)   ...       0.12
freq.     555.30  E(vib)   ...       0.12
freq.     613.31  E(vib)   ...       0.10
freq.     634.43  E(vib)   ...       0.09
freq.     639.01  E(vib)   ...       0.09
freq.     705.29  E(vib)   ...       0.07
freq.     750.68  E(vib)   ...       0.06
freq.     752.12  E(vib)   ...       0.06
freq.     784.31  E(vib)   ...       0.05
freq.     869.44  E(vib)   ...       0.04
freq.     931.77  E(vib)   ...       0.03
freq.     935.02  E(vib)   ...       0.03
freq.     958.70  E(vib)   ...       0.03
freq.     963.13  E(vib)   ...       0.03
freq.     970.33  E(vib)   ...       0.03
freq.    1005.27  E(vib)   ...       0.02
freq.    1026.58  E(vib)   ...       0.02
freq.    1029.66  E(vib)   ...       0.02
freq.    1060.82  E(vib)   ...       0.02
freq.    1100.70  E(vib)   ...       0.02
freq.    1143.78  E(vib)   ...       0.01
freq.    1149.53  E(vib)   ...       0.01
freq.    1185.35  E(vib)   ...       0.01
freq.    1197.26  E(vib)   ...       0.01
freq.    1206.86  E(vib)   ...       0.01
freq.    1310.33  E(vib)   ...       0.01
freq.    1355.95  E(vib)   ...       0.01
freq.    1376.72  E(vib)   ...       0.01
freq.    1385.26  E(vib)   ...       0.00
freq.    1400.45  E(vib)   ...       0.00
freq.    1408.18  E(vib)   ...       0.00
freq.    1416.88  E(vib)   ...       0.00
freq.    1448.47  E(vib)   ...       0.00
freq.    1455.08  E(vib)   ...       0.00
freq.    1460.75  E(vib)   ...       0.00
freq.    1465.78  E(vib)   ...       0.00
freq.    1471.38  E(vib)   ...       0.00
freq.    1476.88  E(vib)   ...       0.00
freq.    1487.45  E(vib)   ...       0.00
freq.    1491.31  E(vib)   ...       0.00
freq.    1629.56  E(vib)   ...       0.00
freq.    1734.79  E(vib)   ...       0.00
freq.    1863.90  E(vib)   ...       0.00
freq.    1874.49  E(vib)   ...       0.00
freq.    3060.14  E(vib)   ...       0.00
freq.    3060.62  E(vib)   ...       0.00
freq.    3064.36  E(vib)   ...       0.00
freq.    3065.09  E(vib)   ...       0.00
freq.    3169.26  E(vib)   ...       0.00
freq.    3169.84  E(vib)   ...       0.00
freq.    3170.15  E(vib)   ...       0.00
freq.    3170.72  E(vib)   ...       0.00
freq.    3171.43  E(vib)   ...       0.00
freq.    3172.33  E(vib)   ...       0.00
freq.    3176.33  E(vib)   ...       0.00
freq.    3177.98  E(vib)   ...       0.00
freq.    3245.71  E(vib)   ...       0.00
freq.    3571.51  E(vib)   ...       0.00
freq.    3703.33  E(vib)   ...       0.00

------------
INNER ENERGY
------------

The inner energy is: U= E(el) + E(ZPE) + E(vib) + E(rot) + E(trans)
    E(el)   - is the total energy from the electronic structure calculation
              = E(kin-el) + E(nuc-el) + E(el-el) + E(nuc-nuc)
    E(ZPE)  - the the zero temperature vibrational energy from the frequency calculation
    E(vib)  - the the finite temperature correction to E(ZPE) due to population
              of excited vibrational states
    E(rot)  - is the rotational thermal energy
    E(trans)- is the translational thermal energy

Summary of contributions to the inner energy U:
Electronic energy                ...   -610.46992289 Eh
Zero point energy                ...      0.23691409 Eh     148.67 kcal/mol
Thermal vibrational correction   ...      0.01164561 Eh       7.31 kcal/mol
Thermal rotational correction    ...      0.00141627 Eh       0.89 kcal/mol
Thermal translational correction ...      0.00141627 Eh       0.89 kcal/mol
-----------------------------------------------------------------------
Total thermal energy                   -610.21853064 Eh

Summary of corrections to the electronic energy:
(perhaps to be used in another calculation)
Total thermal correction                  0.01447815 Eh       9.09 kcal/mol
Non-thermal (ZPE) correction              0.23691409 Eh     148.67 kcal/mol
-----------------------------------------------------------------------
Total correction                          0.25139225 Eh     157.75 kcal/mol

--------
ENTHALPY
--------

The enthalpy is H = U + kB*T
                kB is Boltzmann's constant
Total thermal energy              ...   -610.21853064 Eh
Thermal Enthalpy correction       ...      0.00094421 Eh       0.59 kcal/mol
-----------------------------------------------------------------------
Total Enthalpy                    ...   -610.21758643 Eh

Note: Only C1 symmetry has been detected, increase convergence thresholds
      if your molecule has a higher symmetry. Symmetry factor of 1.0 is
      used for the rotational entropy correction.

Note: Rotational entropy computed according to Herzberg
Infrared and Raman Spectra, Chapter V,1, Van Nostrand Reinhold, 1945
Point Group:  C1, Symmetry Number:   1
Rotational constants in cm-1:     0.040160     0.022299     0.017655

Vibrational entropy computed according to the QRRHO of S. Grimme
Chem.Eur.J. 2012 18 9955 using a reference frequency of 100.0 cm-1

-------
ENTROPY
-------

The entropy contributions are T*S = T*(S(el)+S(vib)+S(rot)+S(trans))
     S(el)   - electronic entropy

                             ****ORCA TERMINATED NORMALLY****
TOTAL RUN TIME: 0 days 0 hours 35 minutes 31 seconds 550 msec
