                         Program Version 6.0.0  -   RELEASE  -
|  1> !PBE0 aug-cc-pVTZ d3 TightSCF SlowConv RIJCOSX defgrid2
|  2>
|  3> %pal
|  4> nprocs 4
|  5> end
|  6>
|  7> %scf
|  8> MaxIter 1500
|  9> end
| 10>
| 11> %maxcore 3000
| 12>
| 13> !CPCM
| 14> %cpcm smd true
| 15> SMDsolvent "MeCN"
| 16> surfacetype gepol_ses
| 17> rsolv 2.19
| 18> end
| 19>
| 20> * xyz 1 2
| 21> C           1.23906097821424     -1.40551070901350     -0.00000531617187
| 22> C           2.45015803140750     -0.67322429285633     -0.00000921567554
| 23> C           2.42811091171597      0.71268482354482     -0.00001568112958
| 24> C           1.19571143634270      1.39424054969992     -0.00001075953318
| 25> C          -0.03981045812169      0.67829020396443      0.00000284784769
| 26> N          -1.17332230996389      1.38563715697618      0.00000321346217
| 27> C          -2.32918806881659      0.72347909408816      0.00002389103772
| 28> C          -2.42077579021744     -0.67559967987832      0.00002275899277
| 29> C          -1.24727430719380     -1.42666779167592      0.00001979178345
| 30> C          -0.01202551197153     -0.74717299874334      0.00001126438315
| 31> H          -1.27875276164831     -2.52070410881391      0.00003141451029
| 32> H          -3.39973883027065     -1.16186770315986      0.00002731924985
| 33> H          -3.23745148992936      1.33696404502357      0.00004224395057
| 34> H           1.14599213399064      2.48703198107260     -0.00001815853916
| 35> H           3.36241847162623      1.28070852836563     -0.00003089393792
| 36> H           3.40229793543149     -1.21093180244413     -0.00001262742469
| 37> H           1.27044702940448     -2.50010749615001     -0.00001669280572
| 38> *
| 39>
| 40>                          ****END OF INPUT****

CARTESIAN COORDINATES (ANGSTROEM)
---------------------------------
  C      1.239061   -1.405511   -0.000005
  C      2.450158   -0.673224   -0.000009
  C      2.428111    0.712685   -0.000016
  C      1.195711    1.394241   -0.000011
  C     -0.039810    0.678290    0.000003
  N     -1.173322    1.385637    0.000003
  C     -2.329188    0.723479    0.000024
  C     -2.420776   -0.675600    0.000023
  C     -1.247274   -1.426668    0.000020
  C     -0.012026   -0.747173    0.000011
  H     -1.278753   -2.520704    0.000031
  H     -3.399739   -1.161868    0.000027
  H     -3.237451    1.336964    0.000042
  H      1.145992    2.487032   -0.000018
  H      3.362418    1.280709   -0.000031
  H      3.402298   -1.210932   -0.000013
  H      1.270447   -2.500107   -0.000017

 Total Charge           Charge          ....    1
 Multiplicity           Mult            ....    2
 Number of Electrons    NEL             ....   67
 Basis Dimension        Dim             ....  621

ORBITAL ENERGIES
----------------
                 SPIN UP ORBITALS
  NO   OCC          E(Eh)            E(eV)
   0   1.0000     -14.432864      -392.7382
   1   1.0000     -10.313231      -280.6373
   2   1.0000     -10.310225      -280.5555
   3   1.0000     -10.308285      -280.5027
   4   1.0000     -10.301174      -280.3092
   5   1.0000     -10.293334      -280.0959
   6   1.0000     -10.289432      -279.9897
   7   1.0000     -10.286340      -279.9056
   8   1.0000     -10.284829      -279.8644
   9   1.0000     -10.275091      -279.5995
  10   1.0000      -1.021665       -27.8009
  11   1.0000      -0.927281       -25.2326
  12   1.0000      -0.875442       -23.8220
  13   1.0000      -0.820510       -22.3272
  14   1.0000      -0.812396       -22.1064
  15   1.0000      -0.707844       -19.2614
  16   1.0000      -0.690364       -18.7857
  17   1.0000      -0.664971       -18.0948
  18   1.0000      -0.583881       -15.8882
  19   1.0000      -0.569279       -15.4909
  20   1.0000      -0.560730       -15.2582
  21   1.0000      -0.506662       -13.7870
  22   1.0000      -0.494138       -13.4462
  23   1.0000      -0.483026       -13.1438
  24   1.0000      -0.478202       -13.0125
  25   1.0000      -0.452795       -12.3212
  26   1.0000      -0.448041       -12.1918
  27   1.0000      -0.414002       -11.2656
  28   1.0000      -0.409136       -11.1331
  29   1.0000      -0.398699       -10.8492
  30   1.0000      -0.370832       -10.0909
  31   1.0000      -0.314388        -8.5549
  32   1.0000      -0.305693        -8.3183
  33   1.0000      -0.301735        -8.2106
  34   0.0000      -0.112453        -3.0600
  35   0.0000      -0.054643        -1.4869
  36   0.0000      -0.037161        -1.0112
  37   0.0000      -0.001302        -0.0354
  38   0.0000       0.010338         0.2813

                 SPIN DOWN ORBITALS
  NO   OCC          E(Eh)            E(eV)
   0   1.0000     -14.429861      -392.6565
   1   1.0000     -10.311008      -280.5768
   2   1.0000     -10.307677      -280.4862
   3   1.0000     -10.302113      -280.3348
   4   1.0000     -10.301452      -280.3168
   5   1.0000     -10.291460      -280.0449
   6   1.0000     -10.288140      -279.9545
   7   1.0000     -10.287287      -279.9313
   8   1.0000     -10.285004      -279.8692
   9   1.0000     -10.274232      -279.5761
  10   1.0000      -1.016676       -27.6651
  11   1.0000      -0.918308       -24.9884
  12   1.0000      -0.869163       -23.6511
  13   1.0000      -0.818943       -22.2846
  14   1.0000      -0.797244       -21.6941
  15   1.0000      -0.703816       -19.1518
  16   1.0000      -0.686476       -18.6800
  17   1.0000      -0.659499       -17.9459
  18   1.0000      -0.580004       -15.7827
  19   1.0000      -0.566177       -15.4064
  20   1.0000      -0.558425       -15.1955
  21   1.0000      -0.506112       -13.7720
  22   1.0000      -0.490604       -13.3500
  23   1.0000      -0.479974       -13.0608
  24   1.0000      -0.464178       -12.6309
  25   1.0000      -0.450341       -12.2544
  26   1.0000      -0.446894       -12.1606
  27   1.0000      -0.412297       -11.2192
  28   1.0000      -0.396284       -10.7834
  29   1.0000      -0.383825       -10.4444
  30   1.0000      -0.344102        -9.3635
  31   1.0000      -0.311576        -8.4784
  32   1.0000      -0.305325        -8.3083
  33   0.0000      -0.211170        -5.7462
  34   0.0000      -0.085296        -2.3210
  35   0.0000      -0.045606        -1.2410
  36   0.0000      -0.016909        -0.4601
  37   0.0000      -0.000500        -0.0136

MULLIKEN ATOMIC CHARGES AND SPIN POPULATIONS
--------------------------------------------
   0 C :   -0.807214    0.335345
   1 C :   -0.508421    0.073227
   2 C :   -0.278009   -0.008674
   3 C :   -0.845741    0.365813
   4 C :    0.603182   -0.007199
   5 N :   -0.669363    0.137356
   6 C :   -0.417903   -0.030609
   7 C :   -0.347849    0.051530
   8 C :   -0.865942    0.122305
   9 C :    1.319717   -0.041037
  10 H :    0.605170   -0.001475
  11 H :    0.385360    0.000548
  12 H :    0.564406    0.005091
  13 H :    0.608718   -0.001438
  14 H :    0.607150   -0.001501
  15 H :    0.740414    0.002591
  16 H :    0.306324   -0.001873
Sum of atomic charges         :    1.0000000

LOEWDIN ATOMIC CHARGES AND SPIN POPULATIONS
-------------------------------------------
   0 C :    0.326921    0.193703
   1 C :    0.295597    0.105098
   2 C :    0.288035    0.076235
   3 C :    0.314167    0.202516
   4 C :   -0.283813    0.048310
   5 N :    0.422499    0.089850
   6 C :    0.078561    0.023009
   7 C :    0.278010    0.048569
   8 C :    0.290367    0.066885
   9 C :   -0.082411    0.036579
  10 H :   -0.121974    0.011205
  11 H :   -0.142003    0.007057
  12 H :   -0.155245   -0.000711
  13 H :   -0.126491    0.040055
  14 H :   -0.135523    0.002379
  15 H :   -0.132687    0.012173
  16 H :   -0.114012    0.037087

  Mayer bond orders larger than 0.100000
B(  0-C ,  1-C ) :   1.2475 B(  0-C ,  2-C ) :  -0.1750 B(  0-C ,  4-C ) :  -0.5318
B(  0-C ,  8-C ) :   0.2109 B(  0-C ,  9-C ) :   0.6170 B(  0-C , 15-H ) :  -0.1295
B(  0-C , 16-H ) :   1.0453 B(  1-C ,  2-C ) :   1.3005 B(  1-C ,  3-C ) :   0.1124
B(  1-C , 15-H ) :   0.1639 B(  2-C ,  3-C ) :   1.3376 B(  2-C ,  4-C ) :  -0.1396
B(  2-C ,  8-C ) :   0.1327 B(  2-C ,  9-C ) :  -0.1750 B(  2-C , 13-H ) :   0.1323
B(  2-C , 14-H ) :   0.4277 B(  2-C , 15-H ) :   0.1101 B(  3-C ,  4-C ) :   0.8505
B(  3-C ,  5-N ) :   0.2285 B(  3-C ,  9-C ) :   0.2414 B(  3-C , 13-H ) :   0.1806
B(  4-C ,  5-N ) :   0.1261 B(  4-C ,  6-C ) :   0.2163 B(  4-C ,  8-C ) :   0.5725
B(  4-C ,  9-C ) :   0.8298 B(  5-N ,  6-C ) :   1.6540 B(  6-C ,  7-C ) :   0.9621
B(  6-C ,  8-C ) :   0.2318 B(  6-C ,  9-C ) :  -0.3487 B(  6-C , 12-H ) :   0.4907
B(  7-C ,  8-C ) :   1.2825 B(  7-C ,  9-C ) :  -0.2914 B(  7-C , 11-H ) :   0.8352
B(  8-C ,  9-C ) :   0.2107 B(  8-C , 10-H ) :   0.3785 B(  9-C , 10-H ) :   0.1860

Dispersion correction           -0.017351218
FINAL SINGLE POINT ENERGY      -401.385315837734

DIPOLE MOMENT
-------------

Method             : SCF
Type of density    : Electron Density
Multiplicity       :   2
Irrep              :   0
Energy             :  -401.3679646196131898 Eh
Relativity type    :
Basis              : AO
                                X                 Y                 Z
Electronic contribution:     -0.207791662       0.737877371      -0.000171577
Nuclear contribution   :      1.179405862      -2.142414994      -0.000006417
                        -----------------------------------------
Total Dipole Moment    :      0.971614200      -1.404537623      -0.000177995
                        -----------------------------------------
Magnitude (a.u.)       :      1.707852488
Magnitude (Debye)      :      4.341016038

Rotational constants in cm-1:             0.105894             0.041940             0.030042
Rotational constants in MHz :          3174.630600          1257.322564           900.626549

                             ****ORCA TERMINATED NORMALLY****
TOTAL RUN TIME: 0 days 0 hours 6 minutes 0 seconds 932 msec
