                         Program Version 6.0.0  -   RELEASE  -
|  1> !r2SCAN opt aug-cc-pVTZ d3 TightSCF SlowConv RIJCOSX defgrid2
|  2>
|  3> %pal
|  4> nprocs 8
|  5> end
|  6>
|  7> %scf
|  8> MaxIter 1500
|  9> end
| 10>
| 11> %maxcore 3500
| 12>
| 13> !CPCM
| 14> %cpcm smd true
| 15> SMDsolvent "MeCN"
| 16> surfacetype gepol_ses
| 17> rsolv 2.19
| 18> end
| 19>
| 20> * xyz 1 2
| 21> C          -0.34270275561118      0.84711240516987     -0.00000461392678
| 22> C          -1.62114214149599      0.28310666085248      0.00005036258773
| 23> C          -1.76655845984461     -1.14534797316706      0.00015902441429
| 24> C          -0.64047775510568     -1.96124661886859      0.00020951229865
| 25> C           0.62711717490611     -1.39778631503778      0.00015498102973
| 26> C           0.79382657036915      0.03758278475822      0.00002872344792
| 27> C           2.09240943022637      0.64547974379403     -0.00003830185520
| 28> C           3.29430838690790     -0.01032166453559      0.00000281703843
| 29> C           4.60760132054960      0.65947907504340     -0.00004889316533
| 30> H           5.19809781171836      0.33504540056372     -0.87962451212125
| 31> H           5.19805381830583      0.33523637975460      0.87962749612829
| 32> H           4.53047503370681      1.75742824935659     -0.00016451192059
| 33> H           3.31318609028762     -1.10737767604801      0.00008430734855
| 34> H           2.10926613216247      1.74179274962735     -0.00012792598686
| 35> H           1.50121349078302     -2.05141955010833      0.00019397364887
| 36> H          -0.75915141594404     -3.04749102718735      0.00029347430122
| 37> H          -2.76100240605802     -1.59669233225998      0.00020413991672
| 38> O          -2.63949171539410      1.10870001849501     -0.00000818654028
| 39> C          -3.98618237230029      0.65565691136091      0.00006847700849
| 40> H          -4.60288239689184      1.56371892248403      0.00002378375357
| 41> H          -4.19996760244314      0.06636471722196      0.90775693220812
| 42> H          -4.20002007511970      0.06623874429631     -0.90752475328728
| 43> H          -0.25881356371464      1.93607439443420     -0.00008040632701
| 44> *
| 45>
| 46>                          ****END OF INPUT****
 Total Charge           Charge          ....    1
 Multiplicity           Mult            ....    2
 Number of Electrons    NEL             ....   79
Dispersion correction           -0.006991320
FINAL SINGLE POINT ENERGY      -463.200603352671
Dispersion correction             ... done (  0.1 sec)
Dispersion correction           -0.007020313
FINAL SINGLE POINT ENERGY      -463.202270304281
Dispersion correction             ... done (  0.1 sec)
Dispersion correction           -0.007028336
FINAL SINGLE POINT ENERGY      -463.202438152038
Dispersion correction             ... done (  0.1 sec)
Dispersion correction           -0.007029063
FINAL SINGLE POINT ENERGY      -463.202481225476
Dispersion correction             ... done (  0.1 sec)
Dispersion correction           -0.007028166
FINAL SINGLE POINT ENERGY      -463.202487893535
Dispersion correction             ... done (  0.1 sec)
                    ***********************HURRAY********************

CARTESIAN COORDINATES (ANGSTROEM)
---------------------------------
  C     -0.335026    0.865965    0.002388
  C     -1.604421    0.300650    0.001264
  C     -1.762008   -1.118279    0.000797
  C     -0.640383   -1.932893    0.003646
  C      0.624754   -1.377524    0.005262
  C      0.794103    0.051335    0.003340
  C      2.089147    0.652342    0.002883
  C      3.276975   -0.018535   -0.002532
  C      4.587533    0.642879   -0.002682
  H      5.166557    0.316582   -0.874949
  H      5.171261    0.305830    0.862310
  H      4.514844    1.728911    0.004050
  H      3.287471   -1.103449   -0.007992
  H      2.114081    1.738230    0.005412
  H      1.488822   -2.026052    0.008654
  H     -0.761609   -3.007659    0.004563
  H     -2.749219   -1.557544   -0.002922
  O     -2.632450    1.140990    0.000613
  C     -3.978580    0.620950   -0.002889
  H     -4.618587    1.497545   -0.001041
  H     -4.156235    0.025400    0.892172
  H     -4.152995    0.031526   -0.902562
  H     -0.236871    1.944135    0.001451

 Multiplicity           Mult            ....    2
 Number of Electrons    NEL             ....   79
 Basis Dimension        Dim             ....  782

ORBITAL ENERGIES
----------------
                 SPIN UP ORBITALS
  NO   OCC          E(Eh)            E(eV)
   0   1.0000     -19.035062      -517.9704
   1   1.0000     -10.147261      -276.1210
   2   1.0000     -10.099505      -274.8215
   3   1.0000     -10.093319      -274.6532
   4   1.0000     -10.093269      -274.6518
   5   1.0000     -10.092455      -274.6297
   6   1.0000     -10.091352      -274.5996
   7   1.0000     -10.076612      -274.1986
   8   1.0000     -10.070652      -274.0364
   9   1.0000     -10.063215      -273.8340
  10   1.0000     -10.041909      -273.2542
  11   1.0000      -1.076889       -29.3036
  12   1.0000      -0.868460       -23.6320
  13   1.0000      -0.809659       -22.0319
  14   1.0000      -0.762746       -20.7554
  15   1.0000      -0.756105       -20.5747
  16   1.0000      -0.695263       -18.9191
  17   1.0000      -0.679085       -18.4788
  18   1.0000      -0.608748       -16.5649
  19   1.0000      -0.602494       -16.3947
  20   1.0000      -0.548922       -14.9369
  21   1.0000      -0.524541       -14.2735
  22   1.0000      -0.491353       -13.3704
  23   1.0000      -0.482559       -13.1311
  24   1.0000      -0.463751       -12.6193
  25   1.0000      -0.462919       -12.5967
  26   1.0000      -0.431490       -11.7414
  27   1.0000      -0.417029       -11.3479
  28   1.0000      -0.406706       -11.0670
  29   1.0000      -0.395164       -10.7530
  30   1.0000      -0.391578       -10.6554
  31   1.0000      -0.383651       -10.4397
  32   1.0000      -0.369709       -10.0603
  33   1.0000      -0.355199        -9.6655
  34   1.0000      -0.344779        -9.3819
  35   1.0000      -0.341933        -9.3045
  36   1.0000      -0.323392        -8.7999
  37   1.0000      -0.311024        -8.4634
  38   1.0000      -0.248800        -6.7702
  39   1.0000      -0.247133        -6.7248
  40   0.0000      -0.108943        -2.9645
  41   0.0000      -0.061217        -1.6658
  42   0.0000      -0.011946        -0.3251
  43   0.0000       0.004633         0.1261
  44   0.0000       0.016243         0.4420

                 SPIN DOWN ORBITALS
  NO   OCC          E(Eh)            E(eV)
   0   1.0000     -19.032398      -517.8979
   1   1.0000     -10.146869      -276.1103
   2   1.0000     -10.098631      -274.7977
   3   1.0000     -10.093363      -274.6544
   4   1.0000     -10.088156      -274.5127
   5   1.0000     -10.087222      -274.4873
   6   1.0000     -10.084885      -274.4237
   7   1.0000     -10.075683      -274.1733
   8   1.0000     -10.073231      -274.1066
   9   1.0000     -10.063726      -273.8479
  10   1.0000     -10.041958      -273.2556
  11   1.0000      -1.073100       -29.2005
  12   1.0000      -0.861661       -23.4470
  13   1.0000      -0.801631       -21.8135
  14   1.0000      -0.760967       -20.7070
  15   1.0000      -0.746825       -20.3221
  16   1.0000      -0.687929       -18.7195
  17   1.0000      -0.676101       -18.3977
  18   1.0000      -0.606209       -16.4958
  19   1.0000      -0.597584       -16.2611
  20   1.0000      -0.545441       -14.8422
  21   1.0000      -0.522525       -14.2186
  22   1.0000      -0.489327       -13.3153
  23   1.0000      -0.479596       -13.0505
  24   1.0000      -0.460342       -12.5265
  25   1.0000      -0.457120       -12.4389
  26   1.0000      -0.430669       -11.7191
  27   1.0000      -0.416396       -11.3307
  28   1.0000      -0.396371       -10.7858
  29   1.0000      -0.393830       -10.7167
  30   1.0000      -0.381765       -10.3884
  31   1.0000      -0.381170       -10.3722
  32   1.0000      -0.368580       -10.0296
  33   1.0000      -0.354047        -9.6341
  34   1.0000      -0.340361        -9.2617
  35   1.0000      -0.333317        -9.0700
  36   1.0000      -0.321407        -8.7459
  37   1.0000      -0.297707        -8.1010
  38   1.0000      -0.238474        -6.4892
  39   0.0000      -0.206797        -5.6272
  40   0.0000      -0.081699        -2.2231
  41   0.0000      -0.052305        -1.4233
  42   0.0000       0.005411         0.1472
  43   0.0000       0.008264         0.2249

MULLIKEN ATOMIC CHARGES AND SPIN POPULATIONS
--------------------------------------------
   0 C :   -0.935747   -0.062533
   1 C :    0.864688    0.019003
   2 C :    0.022002    0.364969
   3 C :   -0.922917   -0.219114
   4 C :   -0.436790    0.368550
   5 C :    2.041045    0.070493
   6 C :   -0.149478    0.036270
   7 C :   -0.175748    0.211701
   8 C :   -0.723895   -0.025560
   9 H :    0.182418    0.026205
  10 H :    0.184077    0.025991
  11 H :    0.248287   -0.005112
  12 H :    0.120975    0.020261
  13 H :   -0.055934    0.010691
  14 H :    0.290305    0.043407
  15 H :    0.451949   -0.009745
  16 H :    0.313740    0.051193
  17 O :   -0.577709    0.081207
  18 C :   -0.610601   -0.007120
  19 H :    0.219010   -0.000627
  20 H :    0.270168    0.002394
  21 H :    0.269238    0.002411
  22 H :    0.110918   -0.004936
Sum of atomic charges         :    1.0000000

LOEWDIN ATOMIC CHARGES AND SPIN POPULATIONS
-------------------------------------------
   0 C :    0.255055   -0.000649
   1 C :   -0.342953    0.070662
   2 C :    0.290800    0.173279
   3 C :    0.271255    0.035665
   4 C :    0.290776    0.180650
   5 C :   -0.094372    0.081797
   6 C :    0.280372    0.079660
   7 C :    0.289096    0.137106
   8 C :    0.618930    0.046757
   9 H :   -0.147227    0.010921
  10 H :   -0.147367    0.010888
  11 H :   -0.162878    0.001089
  12 H :   -0.165795    0.022577
  13 H :   -0.160091    0.008227
  14 H :   -0.170132    0.038685
  15 H :   -0.154786   -0.012705
  16 H :   -0.169140    0.039174
  17 O :    0.639046    0.068018
  18 C :    0.426322    0.007272
  19 H :   -0.169046   -0.000342
  20 H :   -0.160801    0.002071
  21 H :   -0.160643    0.002069
  22 H :   -0.156420   -0.002870

  Mayer bond orders larger than 0.100000
B(  0-C ,  1-C ) :   0.5412 B(  0-C ,  4-C ) :  -0.2975 B(  0-C ,  6-C ) :  -0.2936
B(  0-C ,  7-C ) :   0.2061 B(  0-C , 17-O ) :   0.3341 B(  0-C , 22-H ) :   1.2142
B(  1-C ,  2-C ) :   0.9595 B(  1-C ,  4-C ) :  -0.2924 B(  1-C ,  6-C ) :   0.1544
B(  1-C ,  7-C ) :   0.1239 B(  1-C , 17-O ) :   0.1991 B(  1-C , 18-C ) :   0.1339
B(  1-C , 22-H ) :  -0.1105 B(  2-C ,  3-C ) :   0.9249 B(  2-C ,  5-C ) :  -0.1736
B(  2-C , 16-H ) :   0.8713 B(  2-C , 17-O ) :  -0.2068 B(  2-C , 18-C ) :  -0.1800
B(  3-C ,  4-C ) :   0.9254 B(  3-C ,  5-C ) :  -0.1939 B(  3-C ,  7-C ) :  -0.1068
B(  3-C , 14-H ) :  -0.1479 B(  3-C , 15-H ) :   0.5023 B(  4-C ,  5-C ) :   0.3251
B(  4-C , 14-H ) :   0.8962 B(  5-C ,  6-C ) :  -0.1033 B(  5-C ,  7-C ) :  -0.1459
B(  5-C ,  8-C ) :   0.1284 B(  5-C , 12-H ) :  -0.2712 B(  5-C , 13-H ) :  -0.1169
B(  5-C , 17-O ) :   0.1751 B(  5-C , 22-H ) :  -0.1100 B(  6-C ,  7-C ) :   0.7174
B(  6-C , 12-H ) :   0.1218 B(  6-C , 13-H ) :   1.3773 B(  7-C ,  8-C ) :   0.5627
B(  7-C , 12-H ) :   1.4149 B(  7-C , 13-H ) :  -0.1803 B(  8-C ,  9-H ) :   1.0305
B(  8-C , 10-H ) :   1.0285 B(  8-C , 11-H ) :   0.9526 B(  8-C , 12-H ) :  -0.1548
B( 16-H , 18-C ) :  -0.1484 B( 17-O , 18-C ) :   0.9356 B( 18-C , 19-H ) :   0.9890
B( 18-C , 20-H ) :   0.9155 B( 18-C , 21-H ) :   0.9163

Dispersion correction           -0.007027839
FINAL SINGLE POINT ENERGY      -463.202490081843

DIPOLE MOMENT
-------------

Method             : SCF
Type of density    : Electron Density
Multiplicity       :   2
Irrep              :   0
Energy             :  -463.1954622433167970 Eh
Relativity type    :
Basis              : AO
                                X                 Y                 Z
Electronic contribution:     -4.371133482      -0.617696552       0.016075765
Nuclear contribution   :      4.741902843      -0.263774749      -0.020573941
                        -----------------------------------------
Total Dipole Moment    :      0.370769361      -0.881471301      -0.004498176
                        -----------------------------------------
Magnitude (a.u.)       :      0.956285421
Magnitude (Debye)      :      2.430684371

Rotational constants in cm-1:             0.104893             0.017172             0.014838
Rotational constants in MHz :          3144.625953           514.818421           444.842491

                             ****ORCA TERMINATED NORMALLY****
TOTAL RUN TIME: 0 days 0 hours 24 minutes 30 seconds 171 msec
